+ 1 4 7 cbr 500 ------- 1 4.0 14.0 0 0
- 1 4 7 cbr 500 ------- 1 4.0 14.0 0 0
+ 1 5 7 cbr 500 ------- 1 5.0 15.0 0 1
- 1 5 7 cbr 500 ------- 1 5.0 15.0 0 1
+ 1 0 6 tcp 40 ------- 0 0.0 10.0 0 2
- 1 0 6 tcp 40 ------- 0 0.0 10.0 0 2
+ 1 1 6 tcp 40 ------- 0 1.0 11.0 0 3
- 1 1 6 tcp 40 ------- 0 1.0 11.0 0 3
+ 1 2 6 tcp 40 ------- 0 2.0 12.0 0 4
- 1 2 6 tcp 40 ------- 0 2.0 12.0 0 4
+ 1 3 6 tcp 40 ------- 0 3.0 13.0 0 5
- 1 3 6 tcp 40 ------- 0 3.0 13.0 0 5
+ 1.005 4 7 cbr 500 ------- 1 4.0 14.0 1 6
- 1.005 4 7 cbr 500 ------- 1 4.0 14.0 1 6
+ 1.005 5 7 cbr 500 ------- 1 5.0 15.0 1 7
- 1.005 5 7 cbr 500 ------- 1 5.0 15.0 1 7
+ 1.01 4 7 cbr 500 ------- 1 4.0 14.0 2 8
- 1.01 4 7 cbr 500 ------- 1 4.0 14.0 2 8
+ 1.01 5 7 cbr 500 ------- 1 5.0 15.0 2 9
- 1.01 5 7 cbr 500 ------- 1 5.0 15.0 2 9
r 1.01032 0 6 tcp 40 ------- 0 0.0 10.0 0 2
+ 1.01032 6 8 tcp 40 ------- 0 0.0 10.0 0 2
- 1.01032 6 8 tcp 40 ------- 0 0.0 10.0 0 2
r 1.01032 1 6 tcp 40 ------- 0 1.0 11.0 0 3
+ 1.01032 6 8 tcp 40 ------- 0 1.0 11.0 0 3
r 1.01032 2 6 tcp 40 ------- 0 2.0 12.0 0 4
+ 1.01032 6 8 tcp 40 ------- 0 2.0 12.0 0 4
r 1.01032 3 6 tcp 40 ------- 0 3.0 13.0 0 5
+ 1.01032 6 8 tcp 40 ------- 0 3.0 13.0 0 5
- 1.01042 6 8 tcp 40 ------- 0 1.0 11.0 0 3
- 1.01052 6 8 tcp 40 ------- 0 2.0 12.0 0 4
- 1.01062 6 8 tcp 40 ------- 0 3.0 13.0 0 5
r 1.014 4 7 cbr 500 ------- 1 4.0 14.0 0 0
+ 1.014 7 8 cbr 500 ------- 1 4.0 14.0 0 0
- 1.014 7 8 cbr 500 ------- 1 4.0 14.0 0 0
r 1.014 5 7 cbr 500 ------- 1 5.0 15.0 0 1
+ 1.014 7 8 cbr 500 ------- 1 5.0 15.0 0 1
+ 1.015 4 7 cbr 500 ------- 1 4.0 14.0 3 10
- 1.015 4 7 cbr 500 ------- 1 4.0 14.0 3 10
+ 1.015 5 7 cbr 500 ------- 1 5.0 15.0 3 11
- 1.015 5 7 cbr 500 ------- 1 5.0 15.0 3 11
- 1.0165 7 8 cbr 500 ------- 1 5.0 15.0 0 1
r 1.019 4 7 cbr 500 ------- 1 4.0 14.0 1 6
+ 1.019 7 8 cbr 500 ------- 1 4.0 14.0 1 6
r 1.019 5 7 cbr 500 ------- 1 5.0 15.0 1 7
+ 1.019 7 8 cbr 500 ------- 1 5.0 15.0 1 7
- 1.019 7 8 cbr 500 ------- 1 4.0 14.0 1 6
+ 1.02 4 7 cbr 500 ------- 1 4.0 14.0 4 12
- 1.02 4 7 cbr 500 ------- 1 4.0 14.0 4 12
+ 1.02 5 7 cbr 500 ------- 1 5.0 15.0 4 13
- 1.02 5 7 cbr 500 ------- 1 5.0 15.0 4 13
r 1.02042 6 8 tcp 40 ------- 0 0.0 10.0 0 2
+ 1.02042 8 9 tcp 40 ------- 0 0.0 10.0 0 2
- 1.02042 8 9 tcp 40 ------- 0 0.0 10.0 0 2
r 1.02052 6 8 tcp 40 ------- 0 1.0 11.0 0 3
+ 1.02052 8 9 tcp 40 ------- 0 1.0 11.0 0 3
- 1.02052 8 9 tcp 40 ------- 0 1.0 11.0 0 3
r 1.02062 6 8 tcp 40 ------- 0 2.0 12.0 0 4
+ 1.02062 8 9 tcp 40 ------- 0 2.0 12.0 0 4
- 1.02062 8 9 tcp 40 ------- 0 2.0 12.0 0 4
r 1.02072 6 8 tcp 40 ------- 0 3.0 13.0 0 5
+ 1.02072 8 9 tcp 40 ------- 0 3.0 13.0 0 5
- 1.02072 8 9 tcp 40 ------- 0 3.0 13.0 0 5
- 1.0215 7 8 cbr 500 ------- 1 5.0 15.0 1 7
r 1.024 4 7 cbr 500 ------- 1 4.0 14.0 2 8
+ 1.024 7 8 cbr 500 ------- 1 4.0 14.0 2 8
r 1.024 5 7 cbr 500 ------- 1 5.0 15.0 2 9
+ 1.024 7 8 cbr 500 ------- 1 5.0 15.0 2 9
- 1.024 7 8 cbr 500 ------- 1 4.0 14.0 2 8
+ 1.025 4 7 cbr 500 ------- 1 4.0 14.0 5 14
- 1.025 4 7 cbr 500 ------- 1 4.0 14.0 5 14
+ 1.025 5 7 cbr 500 ------- 1 5.0 15.0 5 15
- 1.025 5 7 cbr 500 ------- 1 5.0 15.0 5 15
- 1.0265 7 8 cbr 500 ------- 1 5.0 15.0 2 9
r 1.0265 7 8 cbr 500 ------- 1 4.0 14.0 0 0
+ 1.0265 8 9 cbr 500 ------- 1 4.0 14.0 0 0
- 1.0265 8 9 cbr 500 ------- 1 4.0 14.0 0 0
r 1.029 4 7 cbr 500 ------- 1 4.0 14.0 3 10
+ 1.029 7 8 cbr 500 ------- 1 4.0 14.0 3 10
r 1.029 5 7 cbr 500 ------- 1 5.0 15.0 3 11
+ 1.029 7 8 cbr 500 ------- 1 5.0 15.0 3 11
- 1.029 7 8 cbr 500 ------- 1 4.0 14.0 3 10
r 1.029 7 8 cbr 500 ------- 1 5.0 15.0 0 1
+ 1.029 8 9 cbr 500 ------- 1 5.0 15.0 0 1
- 1.029 8 9 cbr 500 ------- 1 5.0 15.0 0 1
+ 1.03 4 7 cbr 500 ------- 1 4.0 14.0 6 16
- 1.03 4 7 cbr 500 ------- 1 4.0 14.0 6 16
+ 1.03 5 7 cbr 500 ------- 1 5.0 15.0 6 17
- 1.03 5 7 cbr 500 ------- 1 5.0 15.0 6 17
r 1.030513 8 9 tcp 40 ------- 0 0.0 10.0 0 2
+ 1.030513 9 10 tcp 40 ------- 0 0.0 10.0 0 2
- 1.030513 9 10 tcp 40 ------- 0 0.0 10.0 0 2
r 1.030613 8 9 tcp 40 ------- 0 1.0 11.0 0 3
+ 1.030613 9 11 tcp 40 ------- 0 1.0 11.0 0 3
- 1.030613 9 11 tcp 40 ------- 0 1.0 11.0 0 3
r 1.030713 8 9 tcp 40 ------- 0 2.0 12.0 0 4
+ 1.030713 9 12 tcp 40 ------- 0 2.0 12.0 0 4
- 1.030713 9 12 tcp 40 ------- 0 2.0 12.0 0 4
r 1.030813 8 9 tcp 40 ------- 0 3.0 13.0 0 5
+ 1.030813 9 13 tcp 40 ------- 0 3.0 13.0 0 5
- 1.030813 9 13 tcp 40 ------- 0 3.0 13.0 0 5
- 1.0315 7 8 cbr 500 ------- 1 5.0 15.0 3 11
r 1.0315 7 8 cbr 500 ------- 1 4.0 14.0 1 6
+ 1.0315 8 9 cbr 500 ------- 1 4.0 14.0 1 6
- 1.0315 8 9 cbr 500 ------- 1 4.0 14.0 1 6
r 1.034 4 7 cbr 500 ------- 1 4.0 14.0 4 12
+ 1.034 7 8 cbr 500 ------- 1 4.0 14.0 4 12
r 1.034 5 7 cbr 500 ------- 1 5.0 15.0 4 13
+ 1.034 7 8 cbr 500 ------- 1 5.0 15.0 4 13
- 1.034 7 8 cbr 500 ------- 1 4.0 14.0 4 12
r 1.034 7 8 cbr 500 ------- 1 5.0 15.0 1 7
+ 1.034 8 9 cbr 500 ------- 1 5.0 15.0 1 7
- 1.034 8 9 cbr 500 ------- 1 5.0 15.0 1 7
+ 1.035 4 7 cbr 500 ------- 1 4.0 14.0 7 18
- 1.035 4 7 cbr 500 ------- 1 4.0 14.0 7 18
+ 1.035 5 7 cbr 500 ------- 1 5.0 15.0 7 19
- 1.035 5 7 cbr 500 ------- 1 5.0 15.0 7 19
- 1.0365 7 8 cbr 500 ------- 1 5.0 15.0 4 13
r 1.0365 7 8 cbr 500 ------- 1 4.0 14.0 2 8
+ 1.0365 8 9 cbr 500 ------- 1 4.0 14.0 2 8
- 1.0365 8 9 cbr 500 ------- 1 4.0 14.0 2 8
r 1.037667 8 9 cbr 500 ------- 1 4.0 14.0 0 0
+ 1.037667 9 14 cbr 500 ------- 1 4.0 14.0 0 0
- 1.037667 9 14 cbr 500 ------- 1 4.0 14.0 0 0
r 1.039 4 7 cbr 500 ------- 1 4.0 14.0 5 14
+ 1.039 7 8 cbr 500 ------- 1 4.0 14.0 5 14
r 1.039 5 7 cbr 500 ------- 1 5.0 15.0 5 15
+ 1.039 7 8 cbr 500 ------- 1 5.0 15.0 5 15
- 1.039 7 8 cbr 500 ------- 1 4.0 14.0 5 14
r 1.039 7 8 cbr 500 ------- 1 5.0 15.0 2 9
+ 1.039 8 9 cbr 500 ------- 1 5.0 15.0 2 9
- 1.039 8 9 cbr 500 ------- 1 5.0 15.0 2 9
+ 1.04 4 7 cbr 500 ------- 1 4.0 14.0 8 20
- 1.04 4 7 cbr 500 ------- 1 4.0 14.0 8 20
+ 1.04 5 7 cbr 500 ------- 1 5.0 15.0 8 21
- 1.04 5 7 cbr 500 ------- 1 5.0 15.0 8 21
r 1.040167 8 9 cbr 500 ------- 1 5.0 15.0 0 1
+ 1.040167 9 15 cbr 500 ------- 1 5.0 15.0 0 1
- 1.040167 9 15 cbr 500 ------- 1 5.0 15.0 0 1
r 1.040833 9 10 tcp 40 ------- 0 0.0 10.0 0 2
+ 1.040833 10 9 ack 40 ------- 0 10.0 0.0 0 22
- 1.040833 10 9 ack 40 ------- 0 10.0 0.0 0 22
r 1.040933 9 11 tcp 40 ------- 0 1.0 11.0 0 3
+ 1.040933 11 9 ack 40 ------- 0 11.0 1.0 0 23
- 1.040933 11 9 ack 40 ------- 0 11.0 1.0 0 23
r 1.041033 9 12 tcp 40 ------- 0 2.0 12.0 0 4
+ 1.041033 12 9 ack 40 ------- 0 12.0 2.0 0 24
- 1.041033 12 9 ack 40 ------- 0 12.0 2.0 0 24
r 1.041133 9 13 tcp 40 ------- 0 3.0 13.0 0 5
+ 1.041133 13 9 ack 40 ------- 0 13.0 3.0 0 25
- 1.041133 13 9 ack 40 ------- 0 13.0 3.0 0 25
- 1.0415 7 8 cbr 500 ------- 1 5.0 15.0 5 15
r 1.0415 7 8 cbr 500 ------- 1 4.0 14.0 3 10
+ 1.0415 8 9 cbr 500 ------- 1 4.0 14.0 3 10
- 1.0415 8 9 cbr 500 ------- 1 4.0 14.0 3 10
r 1.042667 8 9 cbr 500 ------- 1 4.0 14.0 1 6
+ 1.042667 9 14 cbr 500 ------- 1 4.0 14.0 1 6
- 1.042667 9 14 cbr 500 ------- 1 4.0 14.0 1 6
r 1.044 4 7 cbr 500 ------- 1 4.0 14.0 6 16
+ 1.044 7 8 cbr 500 ------- 1 4.0 14.0 6 16
r 1.044 5 7 cbr 500 ------- 1 5.0 15.0 6 17
+ 1.044 7 8 cbr 500 ------- 1 5.0 15.0 6 17
- 1.044 7 8 cbr 500 ------- 1 4.0 14.0 6 16
r 1.044 7 8 cbr 500 ------- 1 5.0 15.0 3 11
+ 1.044 8 9 cbr 500 ------- 1 5.0 15.0 3 11
- 1.044 8 9 cbr 500 ------- 1 5.0 15.0 3 11
+ 1.045 4 7 cbr 500 ------- 1 4.0 14.0 9 26
- 1.045 4 7 cbr 500 ------- 1 4.0 14.0 9 26
+ 1.045 5 7 cbr 500 ------- 1 5.0 15.0 9 27
- 1.045 5 7 cbr 500 ------- 1 5.0 15.0 9 27
r 1.045167 8 9 cbr 500 ------- 1 5.0 15.0 1 7
+ 1.045167 9 15 cbr 500 ------- 1 5.0 15.0 1 7
- 1.045167 9 15 cbr 500 ------- 1 5.0 15.0 1 7
- 1.0465 7 8 cbr 500 ------- 1 5.0 15.0 6 17
r 1.0465 7 8 cbr 500 ------- 1 4.0 14.0 4 12
+ 1.0465 8 9 cbr 500 ------- 1 4.0 14.0 4 12
- 1.0465 8 9 cbr 500 ------- 1 4.0 14.0 4 12
r 1.047667 8 9 cbr 500 ------- 1 4.0 14.0 2 8
+ 1.047667 9 14 cbr 500 ------- 1 4.0 14.0 2 8
- 1.047667 9 14 cbr 500 ------- 1 4.0 14.0 2 8
r 1.049 4 7 cbr 500 ------- 1 4.0 14.0 7 18
+ 1.049 7 8 cbr 500 ------- 1 4.0 14.0 7 18
r 1.049 5 7 cbr 500 ------- 1 5.0 15.0 7 19
+ 1.049 7 8 cbr 500 ------- 1 5.0 15.0 7 19
- 1.049 7 8 cbr 500 ------- 1 4.0 14.0 7 18
r 1.049 7 8 cbr 500 ------- 1 5.0 15.0 4 13
+ 1.049 8 9 cbr 500 ------- 1 5.0 15.0 4 13
- 1.049 8 9 cbr 500 ------- 1 5.0 15.0 4 13
+ 1.05 4 7 cbr 500 ------- 1 4.0 14.0 10 28
- 1.05 4 7 cbr 500 ------- 1 4.0 14.0 10 28
+ 1.05 5 7 cbr 500 ------- 1 5.0 15.0 10 29
- 1.05 5 7 cbr 500 ------- 1 5.0 15.0 10 29
r 1.050167 8 9 cbr 500 ------- 1 5.0 15.0 2 9
+ 1.050167 9 15 cbr 500 ------- 1 5.0 15.0 2 9
- 1.050167 9 15 cbr 500 ------- 1 5.0 15.0 2 9
r 1.051153 10 9 ack 40 ------- 0 10.0 0.0 0 22
+ 1.051153 9 8 ack 40 ------- 0 10.0 0.0 0 22
- 1.051153 9 8 ack 40 ------- 0 10.0 0.0 0 22
r 1.051253 11 9 ack 40 ------- 0 11.0 1.0 0 23
+ 1.051253 9 8 ack 40 ------- 0 11.0 1.0 0 23
- 1.051253 9 8 ack 40 ------- 0 11.0 1.0 0 23
r 1.051353 12 9 ack 40 ------- 0 12.0 2.0 0 24
+ 1.051353 9 8 ack 40 ------- 0 12.0 2.0 0 24
- 1.051353 9 8 ack 40 ------- 0 12.0 2.0 0 24
r 1.051453 13 9 ack 40 ------- 0 13.0 3.0 0 25
+ 1.051453 9 8 ack 40 ------- 0 13.0 3.0 0 25
- 1.051453 9 8 ack 40 ------- 0 13.0 3.0 0 25
- 1.0515 7 8 cbr 500 ------- 1 5.0 15.0 7 19
r 1.0515 7 8 cbr 500 ------- 1 4.0 14.0 5 14
+ 1.0515 8 9 cbr 500 ------- 1 4.0 14.0 5 14
- 1.0515 8 9 cbr 500 ------- 1 4.0 14.0 5 14
r 1.051667 9 14 cbr 500 ------- 1 4.0 14.0 0 0
r 1.052667 8 9 cbr 500 ------- 1 4.0 14.0 3 10
+ 1.052667 9 14 cbr 500 ------- 1 4.0 14.0 3 10
- 1.052667 9 14 cbr 500 ------- 1 4.0 14.0 3 10
r 1.054 4 7 cbr 500 ------- 1 4.0 14.0 8 20
+ 1.054 7 8 cbr 500 ------- 1 4.0 14.0 8 20
r 1.054 5 7 cbr 500 ------- 1 5.0 15.0 8 21
+ 1.054 7 8 cbr 500 ------- 1 5.0 15.0 8 21
- 1.054 7 8 cbr 500 ------- 1 4.0 14.0 8 20
r 1.054 7 8 cbr 500 ------- 1 5.0 15.0 5 15
+ 1.054 8 9 cbr 500 ------- 1 5.0 15.0 5 15
- 1.054 8 9 cbr 500 ------- 1 5.0 15.0 5 15
r 1.054167 9 15 cbr 500 ------- 1 5.0 15.0 0 1
+ 1.055 4 7 cbr 500 ------- 1 4.0 14.0 11 30
- 1.055 4 7 cbr 500 ------- 1 4.0 14.0 11 30
+ 1.055 5 7 cbr 500 ------- 1 5.0 15.0 11 31
- 1.055 5 7 cbr 500 ------- 1 5.0 15.0 11 31
r 1.055167 8 9 cbr 500 ------- 1 5.0 15.0 3 11
+ 1.055167 9 15 cbr 500 ------- 1 5.0 15.0 3 11
- 1.055167 9 15 cbr 500 ------- 1 5.0 15.0 3 11
- 1.0565 7 8 cbr 500 ------- 1 5.0 15.0 8 21
r 1.0565 7 8 cbr 500 ------- 1 4.0 14.0 6 16
+ 1.0565 8 9 cbr 500 ------- 1 4.0 14.0 6 16
- 1.0565 8 9 cbr 500 ------- 1 4.0 14.0 6 16
r 1.056667 9 14 cbr 500 ------- 1 4.0 14.0 1 6
r 1.057667 8 9 cbr 500 ------- 1 4.0 14.0 4 12
+ 1.057667 9 14 cbr 500 ------- 1 4.0 14.0 4 12
- 1.057667 9 14 cbr 500 ------- 1 4.0 14.0 4 12
r 1.059 4 7 cbr 500 ------- 1 4.0 14.0 9 26
+ 1.059 7 8 cbr 500 ------- 1 4.0 14.0 9 26
r 1.059 5 7 cbr 500 ------- 1 5.0 15.0 9 27
+ 1.059 7 8 cbr 500 ------- 1 5.0 15.0 9 27
- 1.059 7 8 cbr 500 ------- 1 4.0 14.0 9 26
r 1.059 7 8 cbr 500 ------- 1 5.0 15.0 6 17
+ 1.059 8 9 cbr 500 ------- 1 5.0 15.0 6 17
- 1.059 8 9 cbr 500 ------- 1 5.0 15.0 6 17
r 1.059167 9 15 cbr 500 ------- 1 5.0 15.0 1 7
+ 1.06 4 7 cbr 500 ------- 1 4.0 14.0 12 32
- 1.06 4 7 cbr 500 ------- 1 4.0 14.0 12 32
+ 1.06 5 7 cbr 500 ------- 1 5.0 15.0 12 33
- 1.06 5 7 cbr 500 ------- 1 5.0 15.0 12 33
r 1.060167 8 9 cbr 500 ------- 1 5.0 15.0 4 13
+ 1.060167 9 15 cbr 500 ------- 1 5.0 15.0 4 13
- 1.060167 9 15 cbr 500 ------- 1 5.0 15.0 4 13
r 1.061247 9 8 ack 40 ------- 0 10.0 0.0 0 22
+ 1.061247 8 6 ack 40 ------- 0 10.0 0.0 0 22
- 1.061247 8 6 ack 40 ------- 0 10.0 0.0 0 22
r 1.061347 9 8 ack 40 ------- 0 11.0 1.0 0 23
+ 1.061347 8 6 ack 40 ------- 0 11.0 1.0 0 23
- 1.061347 8 6 ack 40 ------- 0 11.0 1.0 0 23
r 1.061447 9 8 ack 40 ------- 0 12.0 2.0 0 24
+ 1.061447 8 6 ack 40 ------- 0 12.0 2.0 0 24
- 1.061447 8 6 ack 40 ------- 0 12.0 2.0 0 24
- 1.0615 7 8 cbr 500 ------- 1 5.0 15.0 9 27
r 1.0615 7 8 cbr 500 ------- 1 4.0 14.0 7 18
+ 1.0615 8 9 cbr 500 ------- 1 4.0 14.0 7 18
- 1.0615 8 9 cbr 500 ------- 1 4.0 14.0 7 18
r 1.061547 9 8 ack 40 ------- 0 13.0 3.0 0 25
+ 1.061547 8 6 ack 40 ------- 0 13.0 3.0 0 25
- 1.061547 8 6 ack 40 ------- 0 13.0 3.0 0 25
r 1.061667 9 14 cbr 500 ------- 1 4.0 14.0 2 8
r 1.062667 8 9 cbr 500 ------- 1 4.0 14.0 5 14
+ 1.062667 9 14 cbr 500 ------- 1 4.0 14.0 5 14
- 1.062667 9 14 cbr 500 ------- 1 4.0 14.0 5 14
r 1.064 4 7 cbr 500 ------- 1 4.0 14.0 10 28
+ 1.064 7 8 cbr 500 ------- 1 4.0 14.0 10 28
r 1.064 5 7 cbr 500 ------- 1 5.0 15.0 10 29
+ 1.064 7 8 cbr 500 ------- 1 5.0 15.0 10 29
- 1.064 7 8 cbr 500 ------- 1 4.0 14.0 10 28
r 1.064 7 8 cbr 500 ------- 1 5.0 15.0 7 19
+ 1.064 8 9 cbr 500 ------- 1 5.0 15.0 7 19
- 1.064 8 9 cbr 500 ------- 1 5.0 15.0 7 19
r 1.064167 9 15 cbr 500 ------- 1 5.0 15.0 2 9
+ 1.065 4 7 cbr 500 ------- 1 4.0 14.0 13 34
- 1.065 4 7 cbr 500 ------- 1 4.0 14.0 13 34
+ 1.065 5 7 cbr 500 ------- 1 5.0 15.0 13 35
- 1.065 5 7 cbr 500 ------- 1 5.0 15.0 13 35
r 1.065167 8 9 cbr 500 ------- 1 5.0 15.0 5 15
+ 1.065167 9 15 cbr 500 ------- 1 5.0 15.0 5 15
- 1.065167 9 15 cbr 500 ------- 1 5.0 15.0 5 15
- 1.0665 7 8 cbr 500 ------- 1 5.0 15.0 10 29
r 1.0665 7 8 cbr 500 ------- 1 4.0 14.0 8 20
+ 1.0665 8 9 cbr 500 ------- 1 4.0 14.0 8 20
- 1.0665 8 9 cbr 500 ------- 1 4.0 14.0 8 20
r 1.066667 9 14 cbr 500 ------- 1 4.0 14.0 3 10
r 1.067667 8 9 cbr 500 ------- 1 4.0 14.0 6 16
+ 1.067667 9 14 cbr 500 ------- 1 4.0 14.0 6 16
- 1.067667 9 14 cbr 500 ------- 1 4.0 14.0 6 16
r 1.069 4 7 cbr 500 ------- 1 4.0 14.0 11 30
+ 1.069 7 8 cbr 500 ------- 1 4.0 14.0 11 30
r 1.069 5 7 cbr 500 ------- 1 5.0 15.0 11 31
+ 1.069 7 8 cbr 500 ------- 1 5.0 15.0 11 31
- 1.069 7 8 cbr 500 ------- 1 4.0 14.0 11 30
r 1.069 7 8 cbr 500 ------- 1 5.0 15.0 8 21
+ 1.069 8 9 cbr 500 ------- 1 5.0 15.0 8 21
- 1.069 8 9 cbr 500 ------- 1 5.0 15.0 8 21
r 1.069167 9 15 cbr 500 ------- 1 5.0 15.0 3 11
+ 1.07 4 7 cbr 500 ------- 1 4.0 14.0 14 36
- 1.07 4 7 cbr 500 ------- 1 4.0 14.0 14 36
+ 1.07 5 7 cbr 500 ------- 1 5.0 15.0 14 37
- 1.07 5 7 cbr 500 ------- 1 5.0 15.0 14 37
r 1.070167 8 9 cbr 500 ------- 1 5.0 15.0 6 17
+ 1.070167 9 15 cbr 500 ------- 1 5.0 15.0 6 17
- 1.070167 9 15 cbr 500 ------- 1 5.0 15.0 6 17
r 1.071347 8 6 ack 40 ------- 0 10.0 0.0 0 22
+ 1.071347 6 0 ack 40 ------- 0 10.0 0.0 0 22
- 1.071347 6 0 ack 40 ------- 0 10.0 0.0 0 22
r 1.071447 8 6 ack 40 ------- 0 11.0 1.0 0 23
+ 1.071447 6 1 ack 40 ------- 0 11.0 1.0 0 23
- 1.071447 6 1 ack 40 ------- 0 11.0 1.0 0 23
- 1.0715 7 8 cbr 500 ------- 1 5.0 15.0 11 31
r 1.0715 7 8 cbr 500 ------- 1 4.0 14.0 9 26
+ 1.0715 8 9 cbr 500 ------- 1 4.0 14.0 9 26
- 1.0715 8 9 cbr 500 ------- 1 4.0 14.0 9 26
r 1.071547 8 6 ack 40 ------- 0 12.0 2.0 0 24
+ 1.071547 6 2 ack 40 ------- 0 12.0 2.0 0 24
- 1.071547 6 2 ack 40 ------- 0 12.0 2.0 0 24
r 1.071647 8 6 ack 40 ------- 0 13.0 3.0 0 25
+ 1.071647 6 3 ack 40 ------- 0 13.0 3.0 0 25
- 1.071647 6 3 ack 40 ------- 0 13.0 3.0 0 25
r 1.071667 9 14 cbr 500 ------- 1 4.0 14.0 4 12
r 1.072667 8 9 cbr 500 ------- 1 4.0 14.0 7 18
+ 1.072667 9 14 cbr 500 ------- 1 4.0 14.0 7 18
- 1.072667 9 14 cbr 500 ------- 1 4.0 14.0 7 18
r 1.074 4 7 cbr 500 ------- 1 4.0 14.0 12 32
+ 1.074 7 8 cbr 500 ------- 1 4.0 14.0 12 32
r 1.074 5 7 cbr 500 ------- 1 5.0 15.0 12 33
+ 1.074 7 8 cbr 500 ------- 1 5.0 15.0 12 33
- 1.074 7 8 cbr 500 ------- 1 4.0 14.0 12 32
r 1.074 7 8 cbr 500 ------- 1 5.0 15.0 9 27
+ 1.074 8 9 cbr 500 ------- 1 5.0 15.0 9 27
- 1.074 8 9 cbr 500 ------- 1 5.0 15.0 9 27
r 1.074167 9 15 cbr 500 ------- 1 5.0 15.0 4 13
+ 1.075 4 7 cbr 500 ------- 1 4.0 14.0 15 38
- 1.075 4 7 cbr 500 ------- 1 4.0 14.0 15 38
+ 1.075 5 7 cbr 500 ------- 1 5.0 15.0 15 39
- 1.075 5 7 cbr 500 ------- 1 5.0 15.0 15 39
r 1.075167 8 9 cbr 500 ------- 1 5.0 15.0 7 19
+ 1.075167 9 15 cbr 500 ------- 1 5.0 15.0 7 19
- 1.075167 9 15 cbr 500 ------- 1 5.0 15.0 7 19
- 1.0765 7 8 cbr 500 ------- 1 5.0 15.0 12 33
r 1.0765 7 8 cbr 500 ------- 1 4.0 14.0 10 28
+ 1.0765 8 9 cbr 500 ------- 1 4.0 14.0 10 28
- 1.0765 8 9 cbr 500 ------- 1 4.0 14.0 10 28
r 1.076667 9 14 cbr 500 ------- 1 4.0 14.0 5 14
r 1.077667 8 9 cbr 500 ------- 1 4.0 14.0 8 20
+ 1.077667 9 14 cbr 500 ------- 1 4.0 14.0 8 20
- 1.077667 9 14 cbr 500 ------- 1 4.0 14.0 8 20
r 1.079 4 7 cbr 500 ------- 1 4.0 14.0 13 34
+ 1.079 7 8 cbr 500 ------- 1 4.0 14.0 13 34
r 1.079 5 7 cbr 500 ------- 1 5.0 15.0 13 35
+ 1.079 7 8 cbr 500 ------- 1 5.0 15.0 13 35
- 1.079 7 8 cbr 500 ------- 1 4.0 14.0 13 34
r 1.079 7 8 cbr 500 ------- 1 5.0 15.0 10 29
+ 1.079 8 9 cbr 500 ------- 1 5.0 15.0 10 29
- 1.079 8 9 cbr 500 ------- 1 5.0 15.0 10 29
r 1.079167 9 15 cbr 500 ------- 1 5.0 15.0 5 15
+ 1.08 4 7 cbr 500 ------- 1 4.0 14.0 16 40
- 1.08 4 7 cbr 500 ------- 1 4.0 14.0 16 40
+ 1.08 5 7 cbr 500 ------- 1 5.0 15.0 16 41
- 1.08 5 7 cbr 500 ------- 1 5.0 15.0 16 41
r 1.080167 8 9 cbr 500 ------- 1 5.0 15.0 8 21
+ 1.080167 9 15 cbr 500 ------- 1 5.0 15.0 8 21
- 1.080167 9 15 cbr 500 ------- 1 5.0 15.0 8 21
- 1.0815 7 8 cbr 500 ------- 1 5.0 15.0 13 35
r 1.0815 7 8 cbr 500 ------- 1 4.0 14.0 11 30
+ 1.0815 8 9 cbr 500 ------- 1 4.0 14.0 11 30
- 1.0815 8 9 cbr 500 ------- 1 4.0 14.0 11 30
r 1.081667 6 0 ack 40 ------- 0 10.0 0.0 0 22
+ 1.081667 0 6 tcp 540 ------- 0 0.0 10.0 1 42
- 1.081667 0 6 tcp 540 ------- 0 0.0 10.0 1 42
+ 1.081667 0 6 tcp 540 ------- 0 0.0 10.0 2 43
r 1.081667 9 14 cbr 500 ------- 1 4.0 14.0 6 16
r 1.081767 6 1 ack 40 ------- 0 11.0 1.0 0 23
+ 1.081767 1 6 tcp 540 ------- 0 1.0 11.0 1 44
- 1.081767 1 6 tcp 540 ------- 0 1.0 11.0 1 44
+ 1.081767 1 6 tcp 540 ------- 0 1.0 11.0 2 45
r 1.081867 6 2 ack 40 ------- 0 12.0 2.0 0 24
+ 1.081867 2 6 tcp 540 ------- 0 2.0 12.0 1 46
- 1.081867 2 6 tcp 540 ------- 0 2.0 12.0 1 46
+ 1.081867 2 6 tcp 540 ------- 0 2.0 12.0 2 47
r 1.081967 6 3 ack 40 ------- 0 13.0 3.0 0 25
+ 1.081967 3 6 tcp 540 ------- 0 3.0 13.0 1 48
- 1.081967 3 6 tcp 540 ------- 0 3.0 13.0 1 48
+ 1.081967 3 6 tcp 540 ------- 0 3.0 13.0 2 49
r 1.082667 8 9 cbr 500 ------- 1 4.0 14.0 9 26
+ 1.082667 9 14 cbr 500 ------- 1 4.0 14.0 9 26
- 1.082667 9 14 cbr 500 ------- 1 4.0 14.0 9 26
r 1.084 4 7 cbr 500 ------- 1 4.0 14.0 14 36
+ 1.084 7 8 cbr 500 ------- 1 4.0 14.0 14 36
r 1.084 5 7 cbr 500 ------- 1 5.0 15.0 14 37
+ 1.084 7 8 cbr 500 ------- 1 5.0 15.0 14 37
- 1.084 7 8 cbr 500 ------- 1 4.0 14.0 14 36
r 1.084 7 8 cbr 500 ------- 1 5.0 15.0 11 31
+ 1.084 8 9 cbr 500 ------- 1 5.0 15.0 11 31
- 1.084 8 9 cbr 500 ------- 1 5.0 15.0 11 31
r 1.084167 9 15 cbr 500 ------- 1 5.0 15.0 6 17
+ 1.085 4 7 cbr 500 ------- 1 4.0 14.0 17 50
- 1.085 4 7 cbr 500 ------- 1 4.0 14.0 17 50
+ 1.085 5 7 cbr 500 ------- 1 5.0 15.0 17 51
- 1.085 5 7 cbr 500 ------- 1 5.0 15.0 17 51
r 1.085167 8 9 cbr 500 ------- 1 5.0 15.0 9 27
+ 1.085167 9 15 cbr 500 ------- 1 5.0 15.0 9 27
- 1.085167 9 15 cbr 500 ------- 1 5.0 15.0 9 27
- 1.085987 0 6 tcp 540 ------- 0 0.0 10.0 2 43
- 1.086087 1 6 tcp 540 ------- 0 1.0 11.0 2 45
- 1.086187 2 6 tcp 540 ------- 0 2.0 12.0 2 47
- 1.086287 3 6 tcp 540 ------- 0 3.0 13.0 2 49
- 1.0865 7 8 cbr 500 ------- 1 5.0 15.0 14 37
r 1.0865 7 8 cbr 500 ------- 1 4.0 14.0 12 32
+ 1.0865 8 9 cbr 500 ------- 1 4.0 14.0 12 32
- 1.0865 8 9 cbr 500 ------- 1 4.0 14.0 12 32
r 1.086667 9 14 cbr 500 ------- 1 4.0 14.0 7 18
r 1.087667 8 9 cbr 500 ------- 1 4.0 14.0 10 28
+ 1.087667 9 14 cbr 500 ------- 1 4.0 14.0 10 28
- 1.087667 9 14 cbr 500 ------- 1 4.0 14.0 10 28
r 1.089 4 7 cbr 500 ------- 1 4.0 14.0 15 38
+ 1.089 7 8 cbr 500 ------- 1 4.0 14.0 15 38
r 1.089 5 7 cbr 500 ------- 1 5.0 15.0 15 39
+ 1.089 7 8 cbr 500 ------- 1 5.0 15.0 15 39
- 1.089 7 8 cbr 500 ------- 1 4.0 14.0 15 38
r 1.089 7 8 cbr 500 ------- 1 5.0 15.0 12 33
+ 1.089 8 9 cbr 500 ------- 1 5.0 15.0 12 33
- 1.089 8 9 cbr 500 ------- 1 5.0 15.0 12 33
r 1.089167 9 15 cbr 500 ------- 1 5.0 15.0 7 19
+ 1.09 4 7 cbr 500 ------- 1 4.0 14.0 18 52
- 1.09 4 7 cbr 500 ------- 1 4.0 14.0 18 52
+ 1.09 5 7 cbr 500 ------- 1 5.0 15.0 18 53
- 1.09 5 7 cbr 500 ------- 1 5.0 15.0 18 53
r 1.090167 8 9 cbr 500 ------- 1 5.0 15.0 10 29
+ 1.090167 9 15 cbr 500 ------- 1 5.0 15.0 10 29
- 1.090167 9 15 cbr 500 ------- 1 5.0 15.0 10 29
- 1.0915 7 8 cbr 500 ------- 1 5.0 15.0 15 39
r 1.0915 7 8 cbr 500 ------- 1 4.0 14.0 13 34
+ 1.0915 8 9 cbr 500 ------- 1 4.0 14.0 13 34
- 1.0915 8 9 cbr 500 ------- 1 4.0 14.0 13 34
r 1.091667 9 14 cbr 500 ------- 1 4.0 14.0 8 20
r 1.092667 8 9 cbr 500 ------- 1 4.0 14.0 11 30
+ 1.092667 9 14 cbr 500 ------- 1 4.0 14.0 11 30
- 1.092667 9 14 cbr 500 ------- 1 4.0 14.0 11 30
r 1.094 4 7 cbr 500 ------- 1 4.0 14.0 16 40
+ 1.094 7 8 cbr 500 ------- 1 4.0 14.0 16 40
r 1.094 5 7 cbr 500 ------- 1 5.0 15.0 16 41
+ 1.094 7 8 cbr 500 ------- 1 5.0 15.0 16 41
- 1.094 7 8 cbr 500 ------- 1 4.0 14.0 16 40
r 1.094 7 8 cbr 500 ------- 1 5.0 15.0 13 35
+ 1.094 8 9 cbr 500 ------- 1 5.0 15.0 13 35
- 1.094 8 9 cbr 500 ------- 1 5.0 15.0 13 35
r 1.094167 9 15 cbr 500 ------- 1 5.0 15.0 8 21
+ 1.095 4 7 cbr 500 ------- 1 4.0 14.0 19 54
- 1.095 4 7 cbr 500 ------- 1 4.0 14.0 19 54
+ 1.095 5 7 cbr 500 ------- 1 5.0 15.0 19 55
- 1.095 5 7 cbr 500 ------- 1 5.0 15.0 19 55
r 1.095167 8 9 cbr 500 ------- 1 5.0 15.0 11 31
+ 1.095167 9 15 cbr 500 ------- 1 5.0 15.0 11 31
- 1.095167 9 15 cbr 500 ------- 1 5.0 15.0 11 31
r 1.095987 0 6 tcp 540 ------- 0 0.0 10.0 1 42
+ 1.095987 6 8 tcp 540 ------- 0 0.0 10.0 1 42
- 1.095987 6 8 tcp 540 ------- 0 0.0 10.0 1 42
r 1.096087 1 6 tcp 540 ------- 0 1.0 11.0 1 44
+ 1.096087 6 8 tcp 540 ------- 0 1.0 11.0 1 44
r 1.096187 2 6 tcp 540 ------- 0 2.0 12.0 1 46
+ 1.096187 6 8 tcp 540 ------- 0 2.0 12.0 1 46
r 1.096287 3 6 tcp 540 ------- 0 3.0 13.0 1 48
+ 1.096287 6 8 tcp 540 ------- 0 3.0 13.0 1 48
- 1.0965 7 8 cbr 500 ------- 1 5.0 15.0 16 41
r 1.0965 7 8 cbr 500 ------- 1 4.0 14.0 14 36
+ 1.0965 8 9 cbr 500 ------- 1 4.0 14.0 14 36
- 1.0965 8 9 cbr 500 ------- 1 4.0 14.0 14 36
r 1.096667 9 14 cbr 500 ------- 1 4.0 14.0 9 26
- 1.097337 6 8 tcp 540 ------- 0 1.0 11.0 1 44
r 1.097667 8 9 cbr 500 ------- 1 4.0 14.0 12 32
+ 1.097667 9 14 cbr 500 ------- 1 4.0 14.0 12 32
- 1.097667 9 14 cbr 500 ------- 1 4.0 14.0 12 32
- 1.098687 6 8 tcp 540 ------- 0 2.0 12.0 1 46
r 1.099 4 7 cbr 500 ------- 1 4.0 14.0 17 50
+ 1.099 7 8 cbr 500 ------- 1 4.0 14.0 17 50
r 1.099 5 7 cbr 500 ------- 1 5.0 15.0 17 51
+ 1.099 7 8 cbr 500 ------- 1 5.0 15.0 17 51
- 1.099 7 8 cbr 500 ------- 1 4.0 14.0 17 50
r 1.099 7 8 cbr 500 ------- 1 5.0 15.0 14 37
+ 1.099 8 9 cbr 500 ------- 1 5.0 15.0 14 37
- 1.099 8 9 cbr 500 ------- 1 5.0 15.0 14 37
r 1.099167 9 15 cbr 500 ------- 1 5.0 15.0 9 27
+ 1.1 4 7 cbr 500 ------- 1 4.0 14.0 20 56
- 1.1 4 7 cbr 500 ------- 1 4.0 14.0 20 56
+ 1.1 5 7 cbr 500 ------- 1 5.0 15.0 20 57
- 1.1 5 7 cbr 500 ------- 1 5.0 15.0 20 57
- 1.100037 6 8 tcp 540 ------- 0 3.0 13.0 1 48
r 1.100167 8 9 cbr 500 ------- 1 5.0 15.0 12 33
+ 1.100167 9 15 cbr 500 ------- 1 5.0 15.0 12 33
- 1.100167 9 15 cbr 500 ------- 1 5.0 15.0 12 33
r 1.100307 0 6 tcp 540 ------- 0 0.0 10.0 2 43
+ 1.100307 6 8 tcp 540 ------- 0 0.0 10.0 2 43
r 1.100407 1 6 tcp 540 ------- 0 1.0 11.0 2 45
+ 1.100407 6 8 tcp 540 ------- 0 1.0 11.0 2 45
r 1.100507 2 6 tcp 540 ------- 0 2.0 12.0 2 47
+ 1.100507 6 8 tcp 540 ------- 0 2.0 12.0 2 47
r 1.100607 3 6 tcp 540 ------- 0 3.0 13.0 2 49
+ 1.100607 6 8 tcp 540 ------- 0 3.0 13.0 2 49
- 1.101387 6 8 tcp 540 ------- 0 0.0 10.0 2 43
- 1.1015 7 8 cbr 500 ------- 1 5.0 15.0 17 51
r 1.1015 7 8 cbr 500 ------- 1 4.0 14.0 15 38
+ 1.1015 8 9 cbr 500 ------- 1 4.0 14.0 15 38
- 1.1015 8 9 cbr 500 ------- 1 4.0 14.0 15 38
r 1.101667 9 14 cbr 500 ------- 1 4.0 14.0 10 28
r 1.102667 8 9 cbr 500 ------- 1 4.0 14.0 13 34
+ 1.102667 9 14 cbr 500 ------- 1 4.0 14.0 13 34
- 1.102667 9 14 cbr 500 ------- 1 4.0 14.0 13 34
- 1.102737 6 8 tcp 540 ------- 0 1.0 11.0 2 45
r 1.104 4 7 cbr 500 ------- 1 4.0 14.0 18 52
+ 1.104 7 8 cbr 500 ------- 1 4.0 14.0 18 52
r 1.104 5 7 cbr 500 ------- 1 5.0 15.0 18 53
+ 1.104 7 8 cbr 500 ------- 1 5.0 15.0 18 53
- 1.104 7 8 cbr 500 ------- 1 4.0 14.0 18 52
r 1.104 7 8 cbr 500 ------- 1 5.0 15.0 15 39
+ 1.104 8 9 cbr 500 ------- 1 5.0 15.0 15 39
- 1.104 8 9 cbr 500 ------- 1 5.0 15.0 15 39
- 1.104087 6 8 tcp 540 ------- 0 2.0 12.0 2 47
r 1.104167 9 15 cbr 500 ------- 1 5.0 15.0 10 29
+ 1.105 4 7 cbr 500 ------- 1 4.0 14.0 21 58
- 1.105 4 7 cbr 500 ------- 1 4.0 14.0 21 58
+ 1.105 5 7 cbr 500 ------- 1 5.0 15.0 21 59
- 1.105 5 7 cbr 500 ------- 1 5.0 15.0 21 59
r 1.105167 8 9 cbr 500 ------- 1 5.0 15.0 13 35
+ 1.105167 9 15 cbr 500 ------- 1 5.0 15.0 13 35
- 1.105167 9 15 cbr 500 ------- 1 5.0 15.0 13 35
- 1.105437 6 8 tcp 540 ------- 0 3.0 13.0 2 49
- 1.1065 7 8 cbr 500 ------- 1 5.0 15.0 18 53
r 1.1065 7 8 cbr 500 ------- 1 4.0 14.0 16 40
+ 1.1065 8 9 cbr 500 ------- 1 4.0 14.0 16 40
- 1.1065 8 9 cbr 500 ------- 1 4.0 14.0 16 40
r 1.106667 9 14 cbr 500 ------- 1 4.0 14.0 11 30
r 1.107337 6 8 tcp 540 ------- 0 0.0 10.0 1 42
+ 1.107337 8 9 tcp 540 ------- 0 0.0 10.0 1 42
- 1.107667 8 9 tcp 540 ------- 0 0.0 10.0 1 42
r 1.107667 8 9 cbr 500 ------- 1 4.0 14.0 14 36
+ 1.107667 9 14 cbr 500 ------- 1 4.0 14.0 14 36
- 1.107667 9 14 cbr 500 ------- 1 4.0 14.0 14 36
r 1.108687 6 8 tcp 540 ------- 0 1.0 11.0 1 44
+ 1.108687 8 9 tcp 540 ------- 0 1.0 11.0 1 44
- 1.108927 8 9 tcp 540 ------- 0 1.0 11.0 1 44
r 1.109 4 7 cbr 500 ------- 1 4.0 14.0 19 54
+ 1.109 7 8 cbr 500 ------- 1 4.0 14.0 19 54
r 1.109 5 7 cbr 500 ------- 1 5.0 15.0 19 55
+ 1.109 7 8 cbr 500 ------- 1 5.0 15.0 19 55
- 1.109 7 8 cbr 500 ------- 1 4.0 14.0 19 54
r 1.109 7 8 cbr 500 ------- 1 5.0 15.0 16 41
+ 1.109 8 9 cbr 500 ------- 1 5.0 15.0 16 41
r 1.109167 9 15 cbr 500 ------- 1 5.0 15.0 11 31
+ 1.11 4 7 cbr 500 ------- 1 4.0 14.0 22 60
- 1.11 4 7 cbr 500 ------- 1 4.0 14.0 22 60
+ 1.11 5 7 cbr 500 ------- 1 5.0 15.0 22 61
- 1.11 5 7 cbr 500 ------- 1 5.0 15.0 22 61
r 1.110037 6 8 tcp 540 ------- 0 2.0 12.0 1 46
+ 1.110037 8 9 tcp 540 ------- 0 2.0 12.0 1 46
r 1.110167 8 9 cbr 500 ------- 1 5.0 15.0 14 37
+ 1.110167 9 15 cbr 500 ------- 1 5.0 15.0 14 37
- 1.110167 9 15 cbr 500 ------- 1 5.0 15.0 14 37
- 1.110187 8 9 cbr 500 ------- 1 5.0 15.0 16 41
- 1.111354 8 9 tcp 540 ------- 0 2.0 12.0 1 46
r 1.111387 6 8 tcp 540 ------- 0 3.0 13.0 1 48
+ 1.111387 8 9 tcp 540 ------- 0 3.0 13.0 1 48
- 1.1115 7 8 cbr 500 ------- 1 5.0 15.0 19 55
r 1.1115 7 8 cbr 500 ------- 1 4.0 14.0 17 50
+ 1.1115 8 9 cbr 500 ------- 1 4.0 14.0 17 50
r 1.111667 9 14 cbr 500 ------- 1 4.0 14.0 12 32
- 1.112614 8 9 cbr 500 ------- 1 4.0 14.0 17 50
r 1.112667 8 9 cbr 500 ------- 1 4.0 14.0 15 38
+ 1.112667 9 14 cbr 500 ------- 1 4.0 14.0 15 38
- 1.112667 9 14 cbr 500 ------- 1 4.0 14.0 15 38
r 1.112737 6 8 tcp 540 ------- 0 0.0 10.0 2 43
+ 1.112737 8 9 tcp 540 ------- 0 0.0 10.0 2 43
- 1.113781 8 9 tcp 540 ------- 0 3.0 13.0 1 48
r 1.114 4 7 cbr 500 ------- 1 4.0 14.0 20 56
+ 1.114 7 8 cbr 500 ------- 1 4.0 14.0 20 56
r 1.114 5 7 cbr 500 ------- 1 5.0 15.0 20 57
+ 1.114 7 8 cbr 500 ------- 1 5.0 15.0 20 57
- 1.114 7 8 cbr 500 ------- 1 4.0 14.0 20 56
r 1.114 7 8 cbr 500 ------- 1 5.0 15.0 17 51
+ 1.114 8 9 cbr 500 ------- 1 5.0 15.0 17 51
r 1.114087 6 8 tcp 540 ------- 0 1.0 11.0 2 45
+ 1.114087 8 9 tcp 540 ------- 0 1.0 11.0 2 45
r 1.114167 9 15 cbr 500 ------- 1 5.0 15.0 12 33
+ 1.115 4 7 cbr 500 ------- 1 4.0 14.0 23 62
- 1.115 4 7 cbr 500 ------- 1 4.0 14.0 23 62
+ 1.115 5 7 cbr 500 ------- 1 5.0 15.0 23 63
- 1.115 5 7 cbr 500 ------- 1 5.0 15.0 23 63
- 1.115041 8 9 tcp 540 ------- 0 0.0 10.0 2 43
r 1.115167 8 9 cbr 500 ------- 1 5.0 15.0 15 39
+ 1.115167 9 15 cbr 500 ------- 1 5.0 15.0 15 39
- 1.115167 9 15 cbr 500 ------- 1 5.0 15.0 15 39
r 1.115437 6 8 tcp 540 ------- 0 2.0 12.0 2 47
+ 1.115437 8 9 tcp 540 ------- 0 2.0 12.0 2 47
- 1.116302 8 9 cbr 500 ------- 1 5.0 15.0 17 51
- 1.1165 7 8 cbr 500 ------- 1 5.0 15.0 20 57
r 1.1165 7 8 cbr 500 ------- 1 4.0 14.0 18 52
+ 1.1165 8 9 cbr 500 ------- 1 4.0 14.0 18 52
r 1.116667 9 14 cbr 500 ------- 1 4.0 14.0 13 34
r 1.116787 6 8 tcp 540 ------- 0 3.0 13.0 2 49
+ 1.116787 8 9 tcp 540 ------- 0 3.0 13.0 2 49
- 1.117468 8 9 tcp 540 ------- 0 1.0 11.0 2 45
r 1.117667 8 9 cbr 500 ------- 1 4.0 14.0 16 40
+ 1.117667 9 14 cbr 500 ------- 1 4.0 14.0 16 40
- 1.117667 9 14 cbr 500 ------- 1 4.0 14.0 16 40
- 1.118729 8 9 cbr 500 ------- 1 4.0 14.0 18 52
r 1.118927 8 9 tcp 540 ------- 0 0.0 10.0 1 42
+ 1.118927 9 10 tcp 540 ------- 0 0.0 10.0 1 42
- 1.118927 9 10 tcp 540 ------- 0 0.0 10.0 1 42
r 1.119 4 7 cbr 500 ------- 1 4.0 14.0 21 58
+ 1.119 7 8 cbr 500 ------- 1 4.0 14.0 21 58
r 1.119 5 7 cbr 500 ------- 1 5.0 15.0 21 59
+ 1.119 7 8 cbr 500 ------- 1 5.0 15.0 21 59
- 1.119 7 8 cbr 500 ------- 1 4.0 14.0 21 58
r 1.119 7 8 cbr 500 ------- 1 5.0 15.0 18 53
+ 1.119 8 9 cbr 500 ------- 1 5.0 15.0 18 53
r 1.119167 9 15 cbr 500 ------- 1 5.0 15.0 13 35
- 1.119896 8 9 cbr 500 ------- 1 5.0 15.0 18 53
+ 1.12 4 7 cbr 500 ------- 1 4.0 14.0 24 64
- 1.12 4 7 cbr 500 ------- 1 4.0 14.0 24 64
+ 1.12 5 7 cbr 500 ------- 1 5.0 15.0 24 65
- 1.12 5 7 cbr 500 ------- 1 5.0 15.0 24 65
r 1.120187 8 9 tcp 540 ------- 0 1.0 11.0 1 44
+ 1.120187 9 11 tcp 540 ------- 0 1.0 11.0 1 44
- 1.120187 9 11 tcp 540 ------- 0 1.0 11.0 1 44
- 1.121062 8 9 tcp 540 ------- 0 2.0 12.0 2 47
r 1.121354 8 9 cbr 500 ------- 1 5.0 15.0 16 41
+ 1.121354 9 15 cbr 500 ------- 1 5.0 15.0 16 41
- 1.121354 9 15 cbr 500 ------- 1 5.0 15.0 16 41
- 1.1215 7 8 cbr 500 ------- 1 5.0 15.0 21 59
r 1.1215 7 8 cbr 500 ------- 1 4.0 14.0 19 54
+ 1.1215 8 9 cbr 500 ------- 1 4.0 14.0 19 54
r 1.121667 9 14 cbr 500 ------- 1 4.0 14.0 14 36
- 1.122323 8 9 tcp 540 ------- 0 3.0 13.0 2 49
r 1.122614 8 9 tcp 540 ------- 0 2.0 12.0 1 46
+ 1.122614 9 12 tcp 540 ------- 0 2.0 12.0 1 46
- 1.122614 9 12 tcp 540 ------- 0 2.0 12.0 1 46
- 1.123583 8 9 cbr 500 ------- 1 4.0 14.0 19 54
r 1.123781 8 9 cbr 500 ------- 1 4.0 14.0 17 50
+ 1.123781 9 14 cbr 500 ------- 1 4.0 14.0 17 50
- 1.123781 9 14 cbr 500 ------- 1 4.0 14.0 17 50
r 1.124 4 7 cbr 500 ------- 1 4.0 14.0 22 60
+ 1.124 7 8 cbr 500 ------- 1 4.0 14.0 22 60
r 1.124 5 7 cbr 500 ------- 1 5.0 15.0 22 61
+ 1.124 7 8 cbr 500 ------- 1 5.0 15.0 22 61
- 1.124 7 8 cbr 500 ------- 1 4.0 14.0 22 60
r 1.124 7 8 cbr 500 ------- 1 5.0 15.0 19 55