V -t * -v 1.0a5 -a 0
A -t * -n 1 -p 0 -o 0x7fffffff -c 30 -a 1
A -t * -h 1 -m 1073741823 -s 0
c -t * -i 0 -n Blue
c -t * -i 1 -n Red
n -t * -a 0 -s 0 -S UP -v circle -c black -i black
n -t * -a 1 -s 1 -S UP -v circle -c black -i black
n -t * -a 2 -s 2 -S UP -v circle -c black -i black
n -t * -a 3 -s 3 -S UP -v circle -c black -i black
n -t * -a 4 -s 4 -S UP -v circle -c black -i black
n -t * -a 5 -s 5 -S UP -v circle -c black -i black
n -t * -a 6 -s 6 -S UP -v circle -c black -i black
n -t * -a 7 -s 7 -S UP -v circle -c black -i black
n -t * -a 8 -s 8 -S UP -v circle -c black -i black
n -t * -a 9 -s 9 -S UP -v circle -c black -i black
n -t * -a 10 -s 10 -S UP -v circle -c black -i black
n -t * -a 11 -s 11 -S UP -v circle -c black -i black
n -t * -a 12 -s 12 -S UP -v circle -c black -i black
n -t * -a 13 -s 13 -S UP -v circle -c black -i black
n -t * -a 14 -s 14 -S UP -v circle -c black -i black
n -t * -a 15 -s 15 -S UP -v circle -c black -i black
l -t * -s 0 -d 6 -S UP -r 1000000 -D 0.01 -c black -o right-down
l -t * -s 1 -d 6 -S UP -r 1000000 -D 0.01 -c black -o right-down
l -t * -s 4 -d 7 -S UP -r 1000000 -D 0.01 -c black -o right-down
l -t * -s 6 -d 8 -S UP -r 3200000 -D 0.01 -c black -o right-down
l -t * -s 9 -d 13 -S UP -r 1000000 -D 0.01 -c black -o right-down
l -t * -s 9 -d 14 -S UP -r 1000000 -D 0.01 -c black -o right-down
l -t * -s 9 -d 15 -S UP -r 1000000 -D 0.01 -c black -o right-down
l -t * -s 2 -d 6 -S UP -r 1000000 -D 0.01 -c black -o right-up
l -t * -s 3 -d 6 -S UP -r 1000000 -D 0.01 -c black -o right-up
l -t * -s 5 -d 7 -S UP -r 1000000 -D 0.01 -c black -o right-up
l -t * -s 7 -d 8 -S UP -r 1600000 -D 0.01 -c black -o right-up
l -t * -s 9 -d 10 -S UP -r 1000000 -D 0.01 -c black -o right-up
l -t * -s 9 -d 11 -S UP -r 1000000 -D 0.01 -c black -o right-up
l -t * -s 9 -d 12 -S UP -r 1000000 -D 0.01 -c black -o right-up
l -t * -s 8 -d 9 -S UP -r 2400000 -D 0.01 -c black -o right
+ -t 1.09436986743863 -s 5 -d 7 -p exp -e 500 -c 1 -i 0 -a 1 -x {5.0 15.0 0 ------- null}
- -t 1.09436986743863 -s 5 -d 7 -p exp -e 500 -c 1 -i 0 -a 1 -x {5.0 15.0 0 ------- null}
h -t 1.09436986743863 -s 5 -d 7 -p exp -e 500 -c 1 -i 0 -a 1 -x {5.0 15.0 -1 ------- null}
+ -t 1.09936986743863 -s 5 -d 7 -p exp -e 500 -c 1 -i 1 -a 1 -x {5.0 15.0 1 ------- null}
- -t 1.09936986743863 -s 5 -d 7 -p exp -e 500 -c 1 -i 1 -a 1 -x {5.0 15.0 1 ------- null}
h -t 1.09936986743863 -s 5 -d 7 -p exp -e 500 -c 1 -i 1 -a 1 -x {5.0 15.0 -1 ------- null}
+ -t 1.10436986743863 -s 5 -d 7 -p exp -e 500 -c 1 -i 2 -a 1 -x {5.0 15.0 2 ------- null}
- -t 1.10436986743863 -s 5 -d 7 -p exp -e 500 -c 1 -i 2 -a 1 -x {5.0 15.0 2 ------- null}
h -t 1.10436986743863 -s 5 -d 7 -p exp -e 500 -c 1 -i 2 -a 1 -x {5.0 15.0 -1 ------- null}
r -t 1.10836986743863 -s 5 -d 7 -p exp -e 500 -c 1 -i 0 -a 1 -x {5.0 15.0 0 ------- null}
+ -t 1.10836986743863 -s 7 -d 8 -p exp -e 500 -c 1 -i 0 -a 1 -x {5.0 15.0 0 ------- null}
- -t 1.10836986743863 -s 7 -d 8 -p exp -e 500 -c 1 -i 0 -a 1 -x {5.0 15.0 0 ------- null}
h -t 1.10836986743863 -s 7 -d 8 -p exp -e 500 -c 1 -i 0 -a 1 -x {5.0 15.0 -1 ------- null}
+ -t 1.10936986743863 -s 5 -d 7 -p exp -e 500 -c 1 -i 3 -a 1 -x {5.0 15.0 3 ------- null}
- -t 1.10936986743863 -s 5 -d 7 -p exp -e 500 -c 1 -i 3 -a 1 -x {5.0 15.0 3 ------- null}
h -t 1.10936986743863 -s 5 -d 7 -p exp -e 500 -c 1 -i 3 -a 1 -x {5.0 15.0 -1 ------- null}
r -t 1.11336986743863 -s 5 -d 7 -p exp -e 500 -c 1 -i 1 -a 1 -x {5.0 15.0 1 ------- null}
+ -t 1.11336986743863 -s 7 -d 8 -p exp -e 500 -c 1 -i 1 -a 1 -x {5.0 15.0 1 ------- null}
- -t 1.11336986743863 -s 7 -d 8 -p exp -e 500 -c 1 -i 1 -a 1 -x {5.0 15.0 1 ------- null}
h -t 1.11336986743863 -s 7 -d 8 -p exp -e 500 -c 1 -i 1 -a 1 -x {5.0 15.0 -1 ------- null}
+ -t 1.11436986743863 -s 5 -d 7 -p exp -e 500 -c 1 -i 4 -a 1 -x {5.0 15.0 4 ------- null}
- -t 1.11436986743863 -s 5 -d 7 -p exp -e 500 -c 1 -i 4 -a 1 -x {5.0 15.0 4 ------- null}
h -t 1.11436986743863 -s 5 -d 7 -p exp -e 500 -c 1 -i 4 -a 1 -x {5.0 15.0 -1 ------- null}
r -t 1.11836986743863 -s 5 -d 7 -p exp -e 500 -c 1 -i 2 -a 1 -x {5.0 15.0 2 ------- null}
+ -t 1.11836986743863 -s 7 -d 8 -p exp -e 500 -c 1 -i 2 -a 1 -x {5.0 15.0 2 ------- null}
- -t 1.11836986743863 -s 7 -d 8 -p exp -e 500 -c 1 -i 2 -a 1 -x {5.0 15.0 2 ------- null}
h -t 1.11836986743863 -s 7 -d 8 -p exp -e 500 -c 1 -i 2 -a 1 -x {5.0 15.0 -1 ------- null}
+ -t 1.11936986743863 -s 5 -d 7 -p exp -e 500 -c 1 -i 5 -a 1 -x {5.0 15.0 5 ------- null}
- -t 1.11936986743863 -s 5 -d 7 -p exp -e 500 -c 1 -i 5 -a 1 -x {5.0 15.0 5 ------- null}
h -t 1.11936986743863 -s 5 -d 7 -p exp -e 500 -c 1 -i 5 -a 1 -x {5.0 15.0 -1 ------- null}
r -t 1.12086986743863 -s 7 -d 8 -p exp -e 500 -c 1 -i 0 -a 1 -x {5.0 15.0 0 ------- null}
+ -t 1.12086986743863 -s 8 -d 9 -p exp -e 500 -c 1 -i 0 -a 1 -x {5.0 15.0 0 ------- null}
- -t 1.12086986743863 -s 8 -d 9 -p exp -e 500 -c 1 -i 0 -a 1 -x {5.0 15.0 0 ------- null}
h -t 1.12086986743863 -s 8 -d 9 -p exp -e 500 -c 1 -i 0 -a 1 -x {5.0 15.0 -1 ------- null}
r -t 1.12336986743863 -s 5 -d 7 -p exp -e 500 -c 1 -i 3 -a 1 -x {5.0 15.0 3 ------- null}
+ -t 1.12336986743863 -s 7 -d 8 -p exp -e 500 -c 1 -i 3 -a 1 -x {5.0 15.0 3 ------- null}
- -t 1.12336986743863 -s 7 -d 8 -p exp -e 500 -c 1 -i 3 -a 1 -x {5.0 15.0 3 ------- null}
h -t 1.12336986743863 -s 7 -d 8 -p exp -e 500 -c 1 -i 3 -a 1 -x {5.0 15.0 -1 ------- null}
+ -t 1.12436986743863 -s 5 -d 7 -p exp -e 500 -c 1 -i 6 -a 1 -x {5.0 15.0 6 ------- null}
- -t 1.12436986743863 -s 5 -d 7 -p exp -e 500 -c 1 -i 6 -a 1 -x {5.0 15.0 6 ------- null}
h -t 1.12436986743863 -s 5 -d 7 -p exp -e 500 -c 1 -i 6 -a 1 -x {5.0 15.0 -1 ------- null}
r -t 1.12586986743863 -s 7 -d 8 -p exp -e 500 -c 1 -i 1 -a 1 -x {5.0 15.0 1 ------- null}
+ -t 1.12586986743863 -s 8 -d 9 -p exp -e 500 -c 1 -i 1 -a 1 -x {5.0 15.0 1 ------- null}
- -t 1.12586986743863 -s 8 -d 9 -p exp -e 500 -c 1 -i 1 -a 1 -x {5.0 15.0 1 ------- null}
h -t 1.12586986743863 -s 8 -d 9 -p exp -e 500 -c 1 -i 1 -a 1 -x {5.0 15.0 -1 ------- null}
r -t 1.12836986743863 -s 5 -d 7 -p exp -e 500 -c 1 -i 4 -a 1 -x {5.0 15.0 4 ------- null}
+ -t 1.12836986743863 -s 7 -d 8 -p exp -e 500 -c 1 -i 4 -a 1 -x {5.0 15.0 4 ------- null}
- -t 1.12836986743863 -s 7 -d 8 -p exp -e 500 -c 1 -i 4 -a 1 -x {5.0 15.0 4 ------- null}
h -t 1.12836986743863 -s 7 -d 8 -p exp -e 500 -c 1 -i 4 -a 1 -x {5.0 15.0 -1 ------- null}
+ -t 1.12936986743863 -s 5 -d 7 -p exp -e 500 -c 1 -i 7 -a 1 -x {5.0 15.0 7 ------- null}
- -t 1.12936986743863 -s 5 -d 7 -p exp -e 500 -c 1 -i 7 -a 1 -x {5.0 15.0 7 ------- null}
h -t 1.12936986743863 -s 5 -d 7 -p exp -e 500 -c 1 -i 7 -a 1 -x {5.0 15.0 -1 ------- null}
r -t 1.13086986743863 -s 7 -d 8 -p exp -e 500 -c 1 -i 2 -a 1 -x {5.0 15.0 2 ------- null}
+ -t 1.13086986743863 -s 8 -d 9 -p exp -e 500 -c 1 -i 2 -a 1 -x {5.0 15.0 2 ------- null}
- -t 1.13086986743863 -s 8 -d 9 -p exp -e 500 -c 1 -i 2 -a 1 -x {5.0 15.0 2 ------- null}
h -t 1.13086986743863 -s 8 -d 9 -p exp -e 500 -c 1 -i 2 -a 1 -x {5.0 15.0 -1 ------- null}
r -t 1.1325365341053 -s 8 -d 9 -p exp -e 500 -c 1 -i 0 -a 1 -x {5.0 15.0 0 ------- null}
+ -t 1.1325365341053 -s 9 -d 15 -p exp -e 500 -c 1 -i 0 -a 1 -x {5.0 15.0 0 ------- null}
- -t 1.1325365341053 -s 9 -d 15 -p exp -e 500 -c 1 -i 0 -a 1 -x {5.0 15.0 0 ------- null}
h -t 1.1325365341053 -s 9 -d 15 -p exp -e 500 -c 1 -i 0 -a 1 -x {5.0 15.0 -1 ------- null}
r -t 1.13336986743863 -s 5 -d 7 -p exp -e 500 -c 1 -i 5 -a 1 -x {5.0 15.0 5 ------- null}
+ -t 1.13336986743863 -s 7 -d 8 -p exp -e 500 -c 1 -i 5 -a 1 -x {5.0 15.0 5 ------- null}
- -t 1.13336986743863 -s 7 -d 8 -p exp -e 500 -c 1 -i 5 -a 1 -x {5.0 15.0 5 ------- null}
h -t 1.13336986743863 -s 7 -d 8 -p exp -e 500 -c 1 -i 5 -a 1 -x {5.0 15.0 -1 ------- null}
+ -t 1.13436986743863 -s 5 -d 7 -p exp -e 500 -c 1 -i 8 -a 1 -x {5.0 15.0 8 ------- null}
- -t 1.13436986743863 -s 5 -d 7 -p exp -e 500 -c 1 -i 8 -a 1 -x {5.0 15.0 8 ------- null}
h -t 1.13436986743863 -s 5 -d 7 -p exp -e 500 -c 1 -i 8 -a 1 -x {5.0 15.0 -1 ------- null}
r -t 1.13586986743863 -s 7 -d 8 -p exp -e 500 -c 1 -i 3 -a 1 -x {5.0 15.0 3 ------- null}
+ -t 1.13586986743863 -s 8 -d 9 -p exp -e 500 -c 1 -i 3 -a 1 -x {5.0 15.0 3 ------- null}
- -t 1.13586986743863 -s 8 -d 9 -p exp -e 500 -c 1 -i 3 -a 1 -x {5.0 15.0 3 ------- null}
h -t 1.13586986743863 -s 8 -d 9 -p exp -e 500 -c 1 -i 3 -a 1 -x {5.0 15.0 -1 ------- null}
r -t 1.1375365341053 -s 8 -d 9 -p exp -e 500 -c 1 -i 1 -a 1 -x {5.0 15.0 1 ------- null}
+ -t 1.1375365341053 -s 9 -d 15 -p exp -e 500 -c 1 -i 1 -a 1 -x {5.0 15.0 1 ------- null}
- -t 1.1375365341053 -s 9 -d 15 -p exp -e 500 -c 1 -i 1 -a 1 -x {5.0 15.0 1 ------- null}
h -t 1.1375365341053 -s 9 -d 15 -p exp -e 500 -c 1 -i 1 -a 1 -x {5.0 15.0 -1 ------- null}
r -t 1.13836986743863 -s 5 -d 7 -p exp -e 500 -c 1 -i 6 -a 1 -x {5.0 15.0 6 ------- null}
+ -t 1.13836986743863 -s 7 -d 8 -p exp -e 500 -c 1 -i 6 -a 1 -x {5.0 15.0 6 ------- null}
- -t 1.13836986743863 -s 7 -d 8 -p exp -e 500 -c 1 -i 6 -a 1 -x {5.0 15.0 6 ------- null}
h -t 1.13836986743863 -s 7 -d 8 -p exp -e 500 -c 1 -i 6 -a 1 -x {5.0 15.0 -1 ------- null}
+ -t 1.13936986743863 -s 5 -d 7 -p exp -e 500 -c 1 -i 9 -a 1 -x {5.0 15.0 9 ------- null}
- -t 1.13936986743863 -s 5 -d 7 -p exp -e 500 -c 1 -i 9 -a 1 -x {5.0 15.0 9 ------- null}
h -t 1.13936986743863 -s 5 -d 7 -p exp -e 500 -c 1 -i 9 -a 1 -x {5.0 15.0 -1 ------- null}
r -t 1.14086986743863 -s 7 -d 8 -p exp -e 500 -c 1 -i 4 -a 1 -x {5.0 15.0 4 ------- null}
+ -t 1.14086986743863 -s 8 -d 9 -p exp -e 500 -c 1 -i 4 -a 1 -x {5.0 15.0 4 ------- null}
- -t 1.14086986743863 -s 8 -d 9 -p exp -e 500 -c 1 -i 4 -a 1 -x {5.0 15.0 4 ------- null}
h -t 1.14086986743863 -s 8 -d 9 -p exp -e 500 -c 1 -i 4 -a 1 -x {5.0 15.0 -1 ------- null}
r -t 1.1425365341053 -s 8 -d 9 -p exp -e 500 -c 1 -i 2 -a 1 -x {5.0 15.0 2 ------- null}
+ -t 1.1425365341053 -s 9 -d 15 -p exp -e 500 -c 1 -i 2 -a 1 -x {5.0 15.0 2 ------- null}
- -t 1.1425365341053 -s 9 -d 15 -p exp -e 500 -c 1 -i 2 -a 1 -x {5.0 15.0 2 ------- null}
h -t 1.1425365341053 -s 9 -d 15 -p exp -e 500 -c 1 -i 2 -a 1 -x {5.0 15.0 -1 ------- null}
r -t 1.14336986743863 -s 5 -d 7 -p exp -e 500 -c 1 -i 7 -a 1 -x {5.0 15.0 7 ------- null}
+ -t 1.14336986743863 -s 7 -d 8 -p exp -e 500 -c 1 -i 7 -a 1 -x {5.0 15.0 7 ------- null}
- -t 1.14336986743863 -s 7 -d 8 -p exp -e 500 -c 1 -i 7 -a 1 -x {5.0 15.0 7 ------- null}
h -t 1.14336986743863 -s 7 -d 8 -p exp -e 500 -c 1 -i 7 -a 1 -x {5.0 15.0 -1 ------- null}
+ -t 1.14436986743863 -s 5 -d 7 -p exp -e 500 -c 1 -i 10 -a 1 -x {5.0 15.0 10 ------- null}
- -t 1.14436986743863 -s 5 -d 7 -p exp -e 500 -c 1 -i 10 -a 1 -x {5.0 15.0 10 ------- null}
h -t 1.14436986743863 -s 5 -d 7 -p exp -e 500 -c 1 -i 10 -a 1 -x {5.0 15.0 -1 ------- null}
r -t 1.14586986743863 -s 7 -d 8 -p exp -e 500 -c 1 -i 5 -a 1 -x {5.0 15.0 5 ------- null}
+ -t 1.14586986743863 -s 8 -d 9 -p exp -e 500 -c 1 -i 5 -a 1 -x {5.0 15.0 5 ------- null}
- -t 1.14586986743863 -s 8 -d 9 -p exp -e 500 -c 1 -i 5 -a 1 -x {5.0 15.0 5 ------- null}
h -t 1.14586986743863 -s 8 -d 9 -p exp -e 500 -c 1 -i 5 -a 1 -x {5.0 15.0 -1 ------- null}
r -t 1.1465365341053 -s 9 -d 15 -p exp -e 500 -c 1 -i 0 -a 1 -x {5.0 15.0 0 ------- null}
r -t 1.1475365341053 -s 8 -d 9 -p exp -e 500 -c 1 -i 3 -a 1 -x {5.0 15.0 3 ------- null}
+ -t 1.1475365341053 -s 9 -d 15 -p exp -e 500 -c 1 -i 3 -a 1 -x {5.0 15.0 3 ------- null}
- -t 1.1475365341053 -s 9 -d 15 -p exp -e 500 -c 1 -i 3 -a 1 -x {5.0 15.0 3 ------- null}
h -t 1.1475365341053 -s 9 -d 15 -p exp -e 500 -c 1 -i 3 -a 1 -x {5.0 15.0 -1 ------- null}
r -t 1.14836986743863 -s 5 -d 7 -p exp -e 500 -c 1 -i 8 -a 1 -x {5.0 15.0 8 ------- null}
+ -t 1.14836986743863 -s 7 -d 8 -p exp -e 500 -c 1 -i 8 -a 1 -x {5.0 15.0 8 ------- null}
- -t 1.14836986743863 -s 7 -d 8 -p exp -e 500 -c 1 -i 8 -a 1 -x {5.0 15.0 8 ------- null}
h -t 1.14836986743863 -s 7 -d 8 -p exp -e 500 -c 1 -i 8 -a 1 -x {5.0 15.0 -1 ------- null}
+ -t 1.14936986743863 -s 5 -d 7 -p exp -e 500 -c 1 -i 11 -a 1 -x {5.0 15.0 11 ------- null}
- -t 1.14936986743863 -s 5 -d 7 -p exp -e 500 -c 1 -i 11 -a 1 -x {5.0 15.0 11 ------- null}
h -t 1.14936986743863 -s 5 -d 7 -p exp -e 500 -c 1 -i 11 -a 1 -x {5.0 15.0 -1 ------- null}
r -t 1.15086986743863 -s 7 -d 8 -p exp -e 500 -c 1 -i 6 -a 1 -x {5.0 15.0 6 ------- null}
+ -t 1.15086986743863 -s 8 -d 9 -p exp -e 500 -c 1 -i 6 -a 1 -x {5.0 15.0 6 ------- null}
- -t 1.15086986743863 -s 8 -d 9 -p exp -e 500 -c 1 -i 6 -a 1 -x {5.0 15.0 6 ------- null}
h -t 1.15086986743863 -s 8 -d 9 -p exp -e 500 -c 1 -i 6 -a 1 -x {5.0 15.0 -1 ------- null}
r -t 1.1515365341053 -s 9 -d 15 -p exp -e 500 -c 1 -i 1 -a 1 -x {5.0 15.0 1 ------- null}
r -t 1.1525365341053 -s 8 -d 9 -p exp -e 500 -c 1 -i 4 -a 1 -x {5.0 15.0 4 ------- null}
+ -t 1.1525365341053 -s 9 -d 15 -p exp -e 500 -c 1 -i 4 -a 1 -x {5.0 15.0 4 ------- null}
- -t 1.1525365341053 -s 9 -d 15 -p exp -e 500 -c 1 -i 4 -a 1 -x {5.0 15.0 4 ------- null}
h -t 1.1525365341053 -s 9 -d 15 -p exp -e 500 -c 1 -i 4 -a 1 -x {5.0 15.0 -1 ------- null}
r -t 1.15336986743863 -s 5 -d 7 -p exp -e 500 -c 1 -i 9 -a 1 -x {5.0 15.0 9 ------- null}
+ -t 1.15336986743863 -s 7 -d 8 -p exp -e 500 -c 1 -i 9 -a 1 -x {5.0 15.0 9 ------- null}
- -t 1.15336986743863 -s 7 -d 8 -p exp -e 500 -c 1 -i 9 -a 1 -x {5.0 15.0 9 ------- null}
h -t 1.15336986743863 -s 7 -d 8 -p exp -e 500 -c 1 -i 9 -a 1 -x {5.0 15.0 -1 ------- null}
+ -t 1.15436986743863 -s 5 -d 7 -p exp -e 500 -c 1 -i 12 -a 1 -x {5.0 15.0 12 ------- null}
- -t 1.15436986743863 -s 5 -d 7 -p exp -e 500 -c 1 -i 12 -a 1 -x {5.0 15.0 12 ------- null}
h -t 1.15436986743863 -s 5 -d 7 -p exp -e 500 -c 1 -i 12 -a 1 -x {5.0 15.0 -1 ------- null}
r -t 1.15586986743863 -s 7 -d 8 -p exp -e 500 -c 1 -i 7 -a 1 -x {5.0 15.0 7 ------- null}
+ -t 1.15586986743863 -s 8 -d 9 -p exp -e 500 -c 1 -i 7 -a 1 -x {5.0 15.0 7 ------- null}
- -t 1.15586986743863 -s 8 -d 9 -p exp -e 500 -c 1 -i 7 -a 1 -x {5.0 15.0 7 ------- null}
h -t 1.15586986743863 -s 8 -d 9 -p exp -e 500 -c 1 -i 7 -a 1 -x {5.0 15.0 -1 ------- null}
r -t 1.1565365341053 -s 9 -d 15 -p exp -e 500 -c 1 -i 2 -a 1 -x {5.0 15.0 2 ------- null}
r -t 1.1575365341053 -s 8 -d 9 -p exp -e 500 -c 1 -i 5 -a 1 -x {5.0 15.0 5 ------- null}
+ -t 1.1575365341053 -s 9 -d 15 -p exp -e 500 -c 1 -i 5 -a 1 -x {5.0 15.0 5 ------- null}
- -t 1.1575365341053 -s 9 -d 15 -p exp -e 500 -c 1 -i 5 -a 1 -x {5.0 15.0 5 ------- null}
h -t 1.1575365341053 -s 9 -d 15 -p exp -e 500 -c 1 -i 5 -a 1 -x {5.0 15.0 -1 ------- null}
r -t 1.15836986743863 -s 5 -d 7 -p exp -e 500 -c 1 -i 10 -a 1 -x {5.0 15.0 10 ------- null}
+ -t 1.15836986743863 -s 7 -d 8 -p exp -e 500 -c 1 -i 10 -a 1 -x {5.0 15.0 10 ------- null}
- -t 1.15836986743863 -s 7 -d 8 -p exp -e 500 -c 1 -i 10 -a 1 -x {5.0 15.0 10 ------- null}
h -t 1.15836986743863 -s 7 -d 8 -p exp -e 500 -c 1 -i 10 -a 1 -x {5.0 15.0 -1 ------- null}
+ -t 1.15936986743863 -s 5 -d 7 -p exp -e 500 -c 1 -i 13 -a 1 -x {5.0 15.0 13 ------- null}
- -t 1.15936986743863 -s 5 -d 7 -p exp -e 500 -c 1 -i 13 -a 1 -x {5.0 15.0 13 ------- null}
h -t 1.15936986743863 -s 5 -d 7 -p exp -e 500 -c 1 -i 13 -a 1 -x {5.0 15.0 -1 ------- null}
r -t 1.16086986743863 -s 7 -d 8 -p exp -e 500 -c 1 -i 8 -a 1 -x {5.0 15.0 8 ------- null}
+ -t 1.16086986743863 -s 8 -d 9 -p exp -e 500 -c 1 -i 8 -a 1 -x {5.0 15.0 8 ------- null}
- -t 1.16086986743863 -s 8 -d 9 -p exp -e 500 -c 1 -i 8 -a 1 -x {5.0 15.0 8 ------- null}
h -t 1.16086986743863 -s 8 -d 9 -p exp -e 500 -c 1 -i 8 -a 1 -x {5.0 15.0 -1 ------- null}
r -t 1.1615365341053 -s 9 -d 15 -p exp -e 500 -c 1 -i 3 -a 1 -x {5.0 15.0 3 ------- null}
r -t 1.1625365341053 -s 8 -d 9 -p exp -e 500 -c 1 -i 6 -a 1 -x {5.0 15.0 6 ------- null}
+ -t 1.1625365341053 -s 9 -d 15 -p exp -e 500 -c 1 -i 6 -a 1 -x {5.0 15.0 6 ------- null}
- -t 1.1625365341053 -s 9 -d 15 -p exp -e 500 -c 1 -i 6 -a 1 -x {5.0 15.0 6 ------- null}
h -t 1.1625365341053 -s 9 -d 15 -p exp -e 500 -c 1 -i 6 -a 1 -x {5.0 15.0 -1 ------- null}
r -t 1.16336986743863 -s 5 -d 7 -p exp -e 500 -c 1 -i 11 -a 1 -x {5.0 15.0 11 ------- null}
+ -t 1.16336986743863 -s 7 -d 8 -p exp -e 500 -c 1 -i 11 -a 1 -x {5.0 15.0 11 ------- null}
- -t 1.16336986743863 -s 7 -d 8 -p exp -e 500 -c 1 -i 11 -a 1 -x {5.0 15.0 11 ------- null}
h -t 1.16336986743863 -s 7 -d 8 -p exp -e 500 -c 1 -i 11 -a 1 -x {5.0 15.0 -1 ------- null}
+ -t 1.16436986743863 -s 5 -d 7 -p exp -e 500 -c 1 -i 14 -a 1 -x {5.0 15.0 14 ------- null}
- -t 1.16436986743863 -s 5 -d 7 -p exp -e 500 -c 1 -i 14 -a 1 -x {5.0 15.0 14 ------- null}
h -t 1.16436986743863 -s 5 -d 7 -p exp -e 500 -c 1 -i 14 -a 1 -x {5.0 15.0 -1 ------- null}
r -t 1.16586986743863 -s 7 -d 8 -p exp -e 500 -c 1 -i 9 -a 1 -x {5.0 15.0 9 ------- null}
+ -t 1.16586986743863 -s 8 -d 9 -p exp -e 500 -c 1 -i 9 -a 1 -x {5.0 15.0 9 ------- null}
- -t 1.16586986743863 -s 8 -d 9 -p exp -e 500 -c 1 -i 9 -a 1 -x {5.0 15.0 9 ------- null}
h -t 1.16586986743863 -s 8 -d 9 -p exp -e 500 -c 1 -i 9 -a 1 -x {5.0 15.0 -1 ------- null}
r -t 1.1665365341053 -s 9 -d 15 -p exp -e 500 -c 1 -i 4 -a 1 -x {5.0 15.0 4 ------- null}
r -t 1.1675365341053 -s 8 -d 9 -p exp -e 500 -c 1 -i 7 -a 1 -x {5.0 15.0 7 ------- null}
+ -t 1.1675365341053 -s 9 -d 15 -p exp -e 500 -c 1 -i 7 -a 1 -x {5.0 15.0 7 ------- null}
- -t 1.1675365341053 -s 9 -d 15 -p exp -e 500 -c 1 -i 7 -a 1 -x {5.0 15.0 7 ------- null}
h -t 1.1675365341053 -s 9 -d 15 -p exp -e 500 -c 1 -i 7 -a 1 -x {5.0 15.0 -1 ------- null}
r -t 1.16836986743863 -s 5 -d 7 -p exp -e 500 -c 1 -i 12 -a 1 -x {5.0 15.0 12 ------- null}
+ -t 1.16836986743863 -s 7 -d 8 -p exp -e 500 -c 1 -i 12 -a 1 -x {5.0 15.0 12 ------- null}
- -t 1.16836986743863 -s 7 -d 8 -p exp -e 500 -c 1 -i 12 -a 1 -x {5.0 15.0 12 ------- null}
h -t 1.16836986743863 -s 7 -d 8 -p exp -e 500 -c 1 -i 12 -a 1 -x {5.0 15.0 -1 ------- null}
+ -t 1.16936986743863 -s 5 -d 7 -p exp -e 500 -c 1 -i 15 -a 1 -x {5.0 15.0 15 ------- null}
- -t 1.16936986743863 -s 5 -d 7 -p exp -e 500 -c 1 -i 15 -a 1 -x {5.0 15.0 15 ------- null}
h -t 1.16936986743863 -s 5 -d 7 -p exp -e 500 -c 1 -i 15 -a 1 -x {5.0 15.0 -1 ------- null}
r -t 1.17086986743863 -s 7 -d 8 -p exp -e 500 -c 1 -i 10 -a 1 -x {5.0 15.0 10 ------- null}
+ -t 1.17086986743863 -s 8 -d 9 -p exp -e 500 -c 1 -i 10 -a 1 -x {5.0 15.0 10 ------- null}
- -t 1.17086986743863 -s 8 -d 9 -p exp -e 500 -c 1 -i 10 -a 1 -x {5.0 15.0 10 ------- null}
h -t 1.17086986743863 -s 8 -d 9 -p exp -e 500 -c 1 -i 10 -a 1 -x {5.0 15.0 -1 ------- null}
r -t 1.1715365341053 -s 9 -d 15 -p exp -e 500 -c 1 -i 5 -a 1 -x {5.0 15.0 5 ------- null}
r -t 1.1725365341053 -s 8 -d 9 -p exp -e 500 -c 1 -i 8 -a 1 -x {5.0 15.0 8 ------- null}
+ -t 1.1725365341053 -s 9 -d 15 -p exp -e 500 -c 1 -i 8 -a 1 -x {5.0 15.0 8 ------- null}
- -t 1.1725365341053 -s 9 -d 15 -p exp -e 500 -c 1 -i 8 -a 1 -x {5.0 15.0 8 ------- null}
h -t 1.1725365341053 -s 9 -d 15 -p exp -e 500 -c 1 -i 8 -a 1 -x {5.0 15.0 -1 ------- null}
r -t 1.17336986743863 -s 5 -d 7 -p exp -e 500 -c 1 -i 13 -a 1 -x {5.0 15.0 13 ------- null}
+ -t 1.17336986743863 -s 7 -d 8 -p exp -e 500 -c 1 -i 13 -a 1 -x {5.0 15.0 13 ------- null}
- -t 1.17336986743863 -s 7 -d 8 -p exp -e 500 -c 1 -i 13 -a 1 -x {5.0 15.0 13 ------- null}
h -t 1.17336986743863 -s 7 -d 8 -p exp -e 500 -c 1 -i 13 -a 1 -x {5.0 15.0 -1 ------- null}
+ -t 1.17436986743863 -s 5 -d 7 -p exp -e 500 -c 1 -i 16 -a 1 -x {5.0 15.0 16 ------- null}
- -t 1.17436986743863 -s 5 -d 7 -p exp -e 500 -c 1 -i 16 -a 1 -x {5.0 15.0 16 ------- null}
h -t 1.17436986743863 -s 5 -d 7 -p exp -e 500 -c 1 -i 16 -a 1 -x {5.0 15.0 -1 ------- null}
r -t 1.17586986743863 -s 7 -d 8 -p exp -e 500 -c 1 -i 11 -a 1 -x {5.0 15.0 11 ------- null}
+ -t 1.17586986743863 -s 8 -d 9 -p exp -e 500 -c 1 -i 11 -a 1 -x {5.0 15.0 11 ------- null}
- -t 1.17586986743863 -s 8 -d 9 -p exp -e 500 -c 1 -i 11 -a 1 -x {5.0 15.0 11 ------- null}
h -t 1.17586986743863 -s 8 -d 9 -p exp -e 500 -c 1 -i 11 -a 1 -x {5.0 15.0 -1 ------- null}
r -t 1.1765365341053 -s 9 -d 15 -p exp -e 500 -c 1 -i 6 -a 1 -x {5.0 15.0 6 ------- null}
r -t 1.1775365341053 -s 8 -d 9 -p exp -e 500 -c 1 -i 9 -a 1 -x {5.0 15.0 9 ------- null}
+ -t 1.1775365341053 -s 9 -d 15 -p exp -e 500 -c 1 -i 9 -a 1 -x {5.0 15.0 9 ------- null}
- -t 1.1775365341053 -s 9 -d 15 -p exp -e 500 -c 1 -i 9 -a 1 -x {5.0 15.0 9 ------- null}
h -t 1.1775365341053 -s 9 -d 15 -p exp -e 500 -c 1 -i 9 -a 1 -x {5.0 15.0 -1 ------- null}
r -t 1.17836986743863 -s 5 -d 7 -p exp -e 500 -c 1 -i 14 -a 1 -x {5.0 15.0 14 ------- null}
+ -t 1.17836986743863 -s 7 -d 8 -p exp -e 500 -c 1 -i 14 -a 1 -x {5.0 15.0 14 ------- null}
- -t 1.17836986743863 -s 7 -d 8 -p exp -e 500 -c 1 -i 14 -a 1 -x {5.0 15.0 14 ------- null}
h -t 1.17836986743863 -s 7 -d 8 -p exp -e 500 -c 1 -i 14 -a 1 -x {5.0 15.0 -1 ------- null}
+ -t 1.17936986743863 -s 5 -d 7 -p exp -e 500 -c 1 -i 17 -a 1 -x {5.0 15.0 17 ------- null}
- -t 1.17936986743863 -s 5 -d 7 -p exp -e 500 -c 1 -i 17 -a 1 -x {5.0 15.0 17 ------- null}
h -t 1.17936986743863 -s 5 -d 7 -p exp -e 500 -c 1 -i 17 -a 1 -x {5.0 15.0 -1 ------- null}
r -t 1.18086986743863 -s 7 -d 8 -p exp -e 500 -c 1 -i 12 -a 1 -x {5.0 15.0 12 ------- null}
+ -t 1.18086986743863 -s 8 -d 9 -p exp -e 500 -c 1 -i 12 -a 1 -x {5.0 15.0 12 ------- null}
- -t 1.18086986743863 -s 8 -d 9 -p exp -e 500 -c 1 -i 12 -a 1 -x {5.0 15.0 12 ------- null}
h -t 1.18086986743863 -s 8 -d 9 -p exp -e 500 -c 1 -i 12 -a 1 -x {5.0 15.0 -1 ------- null}
r -t 1.1815365341053 -s 9 -d 15 -p exp -e 500 -c 1 -i 7 -a 1 -x {5.0 15.0 7 ------- null}
r -t 1.1825365341053 -s 8 -d 9 -p exp -e 500 -c 1 -i 10 -a 1 -x {5.0 15.0 10 ------- null}
+ -t 1.1825365341053 -s 9 -d 15 -p exp -e 500 -c 1 -i 10 -a 1 -x {5.0 15.0 10 ------- null}
- -t 1.1825365341053 -s 9 -d 15 -p exp -e 500 -c 1 -i 10 -a 1 -x {5.0 15.0 10 ------- null}
h -t 1.1825365341053 -s 9 -d 15 -p exp -e 500 -c 1 -i 10 -a 1 -x {5.0 15.0 -1 ------- null}
r -t 1.18336986743863 -s 5 -d 7 -p exp -e 500 -c 1 -i 15 -a 1 -x {5.0 15.0 15 ------- null}
+ -t 1.18336986743863 -s 7 -d 8 -p exp -e 500 -c 1 -i 15 -a 1 -x {5.0 15.0 15 ------- null}
- -t 1.18336986743863 -s 7 -d 8 -p exp -e 500 -c 1 -i 15 -a 1 -x {5.0 15.0 15 ------- null}
h -t 1.18336986743863 -s 7 -d 8 -p exp -e 500 -c 1 -i 15 -a 1 -x {5.0 15.0 -1 ------- null}
+ -t 1.18436986743863 -s 5 -d 7 -p exp -e 500 -c 1 -i 18 -a 1 -x {5.0 15.0 18 ------- null}
- -t 1.18436986743863 -s 5 -d 7 -p exp -e 500 -c 1 -i 18 -a 1 -x {5.0 15.0 18 ------- null}
h -t 1.18436986743863 -s 5 -d 7 -p exp -e 500 -c 1 -i 18 -a 1 -x {5.0 15.0 -1 ------- null}
r -t 1.18586986743863 -s 7 -d 8 -p exp -e 500 -c 1 -i 13 -a 1 -x {5.0 15.0 13 ------- null}
+ -t 1.18586986743863 -s 8 -d 9 -p exp -e 500 -c 1 -i 13 -a 1 -x {5.0 15.0 13 ------- null}
- -t 1.18586986743863 -s 8 -d 9 -p exp -e 500 -c 1 -i 13 -a 1 -x {5.0 15.0 13 ------- null}
h -t 1.18586986743863 -s 8 -d 9 -p exp -e 500 -c 1 -i 13 -a 1 -x {5.0 15.0 -1 ------- null}
r -t 1.1865365341053 -s 9 -d 15 -p exp -e 500 -c 1 -i 8 -a 1 -x {5.0 15.0 8 ------- null}
r -t 1.1875365341053 -s 8 -d 9 -p exp -e 500 -c 1 -i 11 -a 1 -x {5.0 15.0 11 ------- null}
+ -t 1.1875365341053 -s 9 -d 15 -p exp -e 500 -c 1 -i 11 -a 1 -x {5.0 15.0 11 ------- null}
- -t 1.1875365341053 -s 9 -d 15 -p exp -e 500 -c 1 -i 11 -a 1 -x {5.0 15.0 11 ------- null}
h -t 1.1875365341053 -s 9 -d 15 -p exp -e 500 -c 1 -i 11 -a 1 -x {5.0 15.0 -1 ------- null}
r -t 1.18836986743863 -s 5 -d 7 -p exp -e 500 -c 1 -i 16 -a 1 -x {5.0 15.0 16 ------- null}
+ -t 1.18836986743863 -s 7 -d 8 -p exp -e 500 -c 1 -i 16 -a 1 -x {5.0 15.0 16 ------- null}
- -t 1.18836986743863 -s 7 -d 8 -p exp -e 500 -c 1 -i 16 -a 1 -x {5.0 15.0 16 ------- null}
h -t 1.18836986743863 -s 7 -d 8 -p exp -e 500 -c 1 -i 16 -a 1 -x {5.0 15.0 -1 ------- null}
+ -t 1.18936986743863 -s 5 -d 7 -p exp -e 500 -c 1 -i 19 -a 1 -x {5.0 15.0 19 ------- null}
- -t 1.18936986743863 -s 5 -d 7 -p exp -e 500 -c 1 -i 19 -a 1 -x {5.0 15.0 19 ------- null}
h -t 1.18936986743863 -s 5 -d 7 -p exp -e 500 -c 1 -i 19 -a 1 -x {5.0 15.0 -1 ------- null}
r -t 1.19086986743863 -s 7 -d 8 -p exp -e 500 -c 1 -i 14 -a 1 -x {5.0 15.0 14 ------- null}
+ -t 1.19086986743863 -s 8 -d 9 -p exp -e 500 -c 1 -i 14 -a 1 -x {5.0 15.0 14 ------- null}
- -t 1.19086986743863 -s 8 -d 9 -p exp -e 500 -c 1 -i 14 -a 1 -x {5.0 15.0 14 ------- null}
h -t 1.19086986743863 -s 8 -d 9 -p exp -e 500 -c 1 -i 14 -a 1 -x {5.0 15.0 -1 ------- null}
r -t 1.1915365341053 -s 9 -d 15 -p exp -e 500 -c 1 -i 9 -a 1 -x {5.0 15.0 9 ------- null}
r -t 1.1925365341053 -s 8 -d 9 -p exp -e 500 -c 1 -i 12 -a 1 -x {5.0 15.0 12 ------- null}
+ -t 1.1925365341053 -s 9 -d 15 -p exp -e 500 -c 1 -i 12 -a 1 -x {5.0 15.0 12 ------- null}
- -t 1.1925365341053 -s 9 -d 15 -p exp -e 500 -c 1 -i 12 -a 1 -x {5.0 15.0 12 ------- null}
h -t 1.1925365341053 -s 9 -d 15 -p exp -e 500 -c 1 -i 12 -a 1 -x {5.0 15.0 -1 ------- null}
r -t 1.19336986743863 -s 5 -d 7 -p exp -e 500 -c 1 -i 17 -a 1 -x {5.0 15.0 17 ------- null}
+ -t 1.19336986743863 -s 7 -d 8 -p exp -e 500 -c 1 -i 17 -a 1 -x {5.0 15.0 17 ------- null}
- -t 1.19336986743863 -s 7 -d 8 -p exp -e 500 -c 1 -i 17 -a 1 -x {5.0 15.0 17 ------- null}
h -t 1.19336986743863 -s 7 -d 8 -p exp -e 500 -c 1 -i 17 -a 1 -x {5.0 15.0 -1 ------- null}
+ -t 1.19436986743863 -s 5 -d 7 -p exp -e 500 -c 1 -i 20 -a 1 -x {5.0 15.0 20 ------- null}
- -t 1.19436986743863 -s 5 -d 7 -p exp -e 500 -c 1 -i 20 -a 1 -x {5.0 15.0 20 ------- null}
h -t 1.19436986743863 -s 5 -d 7 -p exp -e 500 -c 1 -i 20 -a 1 -x {5.0 15.0 -1 ------- null}
r -t 1.19586986743863 -s 7 -d 8 -p exp -e 500 -c 1 -i 15 -a 1 -x {5.0 15.0 15 ------- null}
+ -t 1.19586986743863 -s 8 -d 9 -p exp -e 500 -c 1 -i 15 -a 1 -x {5.0 15.0 15 ------- null}
- -t 1.19586986743863 -s 8 -d 9 -p exp -e 500 -c 1 -i 15 -a 1 -x {5.0 15.0 15 ------- null}
h -t 1.19586986743863 -s 8 -d 9 -p exp -e 500 -c 1 -i 15 -a 1 -x {5.0 15.0 -1 ------- null}
r -t 1.1965365341053 -s 9 -d 15 -p exp -e 500 -c 1 -i 10 -a 1 -x {5.0 15.0 10 ------- null}
r -t 1.1975365341053 -s 8 -d 9 -p exp -e 500 -c 1 -i 13 -a 1 -x {5.0 15.0 13 ------- null}
+ -t 1.1975365341053 -s 9 -d 15 -p exp -e 500 -c 1 -i 13 -a 1 -x {5.0 15.0 13 ------- null}
- -t 1.1975365341053 -s 9 -d 15 -p exp -e 500 -c 1 -i 13 -a 1 -x {5.0 15.0 13 ------- null}
h -t 1.1975365341053 -s 9 -d 15 -p exp -e 500 -c 1 -i 13 -a 1 -x {5.0 15.0 -1 ------- null}
r -t 1.19836986743863 -s 5 -d 7 -p exp -e 500 -c 1 -i 18 -a 1 -x {5.0 15.0 18 ------- null}
+ -t 1.19836986743863 -s 7 -d 8 -p exp -e 500 -c 1 -i 18 -a 1 -x {5.0 15.0 18 ------- null}
- -t 1.19836986743863 -s 7 -d 8 -p exp -e 500 -c 1 -i 18 -a 1 -x {5.0 15.0 18 ------- null}
h -t 1.19836986743863 -s 7 -d 8 -p exp -e 500 -c 1 -i 18 -a 1 -x {5.0 15.0 -1 ------- null}
+ -t 1.19936986743863 -s 5 -d 7 -p exp -e 500 -c 1 -i 21 -a 1 -x {5.0 15.0 21 ------- null}
- -t 1.19936986743863 -s 5 -d 7 -p exp -e 500 -c 1 -i 21 -a 1 -x {5.0 15.0 21 ------- null}
h -t 1.19936986743863 -s 5 -d 7 -p exp -e 500 -c 1 -i 21 -a 1 -x {5.0 15.0 -1 ------- null}
r -t 1.20086986743863 -s 7 -d 8 -p exp -e 500 -c 1 -i 16 -a 1 -x {5.0 15.0 16 ------- null}
+ -t 1.20086986743863 -s 8 -d 9 -p exp -e 500 -c 1 -i 16 -a 1 -x {5.0 15.0 16 ------- null}
- -t 1.20086986743863 -s 8 -d 9 -p exp -e 500 -c 1 -i 16 -a 1 -x {5.0 15.0 16 ------- null}
h -t 1.20086986743863 -s 8 -d 9 -p exp -e 500 -c 1 -i 16 -a 1 -x {5.0 15.0 -1 ------- null}
r -t 1.2015365341053 -s 9 -d 15 -p exp -e 500 -c 1 -i 11 -a 1 -x {5.0 15.0 11 ------- null}
r -t 1.2025365341053 -s 8 -d 9 -p exp -e 500 -c 1 -i 14 -a 1 -x {5.0 15.0 14 ------- null}
+ -t 1.2025365341053 -s 9 -d 15 -p exp -e 500 -c 1 -i 14 -a 1 -x {5.0 15.0 14 ------- null}
- -t 1.2025365341053 -s 9 -d 15 -p exp -e 500 -c 1 -i 14 -a 1 -x {5.0 15.0 14 ------- null}
h -t 1.2025365341053 -s 9 -d 15 -p exp -e 500 -c 1 -i 14 -a 1 -x {5.0 15.0 -1 ------- null}
r -t 1.20336986743863 -s 5 -d 7 -p exp -e 500 -c 1 -i 19 -a 1 -x {5.0 15.0 19 ------- null}
+ -t 1.20336986743863 -s 7 -d 8 -p exp -e 500 -c 1 -i 19 -a 1 -x {5.0 15.0 19 ------- null}
- -t 1.20336986743863 -s 7 -d 8 -p exp -e 500 -c 1 -i 19 -a 1 -x {5.0 15.0 19 ------- null}
h -t 1.20336986743863 -s 7 -d 8 -p exp -e 500 -c 1 -i 19 -a 1 -x {5.0 15.0 -1 ------- null}
+ -t 1.20436986743863 -s 5 -d 7 -p exp -e 500 -c 1 -i 22 -a 1 -x {5.0 15.0 22 ------- null}
- -t 1.20436986743863 -s 5 -d 7 -p exp -e 500 -c 1 -i 22 -a 1 -x {5.0 15.0 22 ------- null}
h -t 1.20436986743863 -s 5 -d 7 -p exp -e 500 -c 1 -i 22 -a 1 -x {5.0 15.0 -1 ------- null}
r -t 1.20586986743863 -s 7 -d 8 -p exp -e 500 -c 1 -i 17 -a 1 -x {5.0 15.0 17 ------- null}
+ -t 1.20586986743863 -s 8 -d 9 -p exp -e 500 -c 1 -i 17 -a 1 -x {5.0 15.0 17 ------- null}
- -t 1.20586986743863 -s 8 -d 9 -p exp -e 500 -c 1 -i 17 -a 1 -x {5.0 15.0 17 ------- null}
h -t 1.20586986743863 -s 8 -d 9 -p exp -e 500 -c 1 -i 17 -a 1 -x {5.0 15.0 -1 ------- null}
r -t 1.2065365341053 -s 9 -d 15 -p exp -e 500 -c 1 -i 12 -a 1 -x {5.0 15.0 12 ------- null}
r -t 1.2075365341053 -s 8 -d 9 -p exp -e 500 -c 1 -i 15 -a 1 -x {5.0 15.0 15 ------- null}
+ -t 1.2075365341053 -s 9 -d 15 -p exp -e 500 -c 1 -i 15 -a 1 -x {5.0 15.0 15 ------- null}
- -t 1.2075365341053 -s 9 -d 15 -p exp -e 500 -c 1 -i 15 -a 1 -x {5.0 15.0 15 ------- null}
h -t 1.2075365341053 -s 9 -d 15 -p exp -e 500 -c 1 -i 15 -a 1 -x {5.0 15.0 -1 ------- null}
r -t 1.20836986743863 -s 5 -d 7 -p exp -e 500 -c 1 -i 20 -a 1 -x {5.0 15.0 20 ------- null}
+ -t 1.20836986743863 -s 7 -d 8 -p exp -e 500 -c 1 -i 20 -a 1 -x {5.0 15.0 20 ------- null}
- -t 1.20836986743863 -s 7 -d 8 -p exp -e 500 -c 1 -i 20 -a 1 -x {5.0 15.0 20 ------- null}
h -t 1.20836986743863 -s 7 -d 8 -p exp -e 500 -c 1 -i 20 -a 1 -x {5.0 15.0 -1 ------- null}
+ -t 1.20936986743863 -s 5 -d 7 -p exp -e 500 -c 1 -i 23 -a 1 -x {5.0 15.0 23 ------- null}
- -t 1.20936986743863 -s 5 -d 7 -p exp -e 500 -c 1 -i 23 -a 1 -x {5.0 15.0 23 ------- null}
h -t 1.20936986743863 -s 5 -d 7 -p exp -e 500 -c 1 -i 23 -a 1 -x {5.0 15.0 -1 ------- null}
r -t 1.21086986743863 -s 7 -d 8 -p exp -e 500 -c 1 -i 18 -a 1 -x {5.0 15.0 18 ------- null}
+ -t 1.21086986743863 -s 8 -d 9 -p exp -e 500 -c 1 -i 18 -a 1 -x {5.0 15.0 18 ------- null}
- -t 1.21086986743863 -s 8 -d 9 -p exp -e 500 -c 1 -i 18 -a 1 -x {5.0 15.0 18 ------- null}