+ 1.09437 5 7 exp 500 ------- 1 5.0 15.0 0 0
- 1.09437 5 7 exp 500 ------- 1 5.0 15.0 0 0
+ 1.09937 5 7 exp 500 ------- 1 5.0 15.0 1 1
- 1.09937 5 7 exp 500 ------- 1 5.0 15.0 1 1
+ 1.10437 5 7 exp 500 ------- 1 5.0 15.0 2 2
- 1.10437 5 7 exp 500 ------- 1 5.0 15.0 2 2
r 1.10837 5 7 exp 500 ------- 1 5.0 15.0 0 0
+ 1.10837 7 8 exp 500 ------- 1 5.0 15.0 0 0
- 1.10837 7 8 exp 500 ------- 1 5.0 15.0 0 0
+ 1.10937 5 7 exp 500 ------- 1 5.0 15.0 3 3
- 1.10937 5 7 exp 500 ------- 1 5.0 15.0 3 3
r 1.11337 5 7 exp 500 ------- 1 5.0 15.0 1 1
+ 1.11337 7 8 exp 500 ------- 1 5.0 15.0 1 1
- 1.11337 7 8 exp 500 ------- 1 5.0 15.0 1 1
+ 1.11437 5 7 exp 500 ------- 1 5.0 15.0 4 4
- 1.11437 5 7 exp 500 ------- 1 5.0 15.0 4 4
r 1.11837 5 7 exp 500 ------- 1 5.0 15.0 2 2
+ 1.11837 7 8 exp 500 ------- 1 5.0 15.0 2 2
- 1.11837 7 8 exp 500 ------- 1 5.0 15.0 2 2
+ 1.11937 5 7 exp 500 ------- 1 5.0 15.0 5 5
- 1.11937 5 7 exp 500 ------- 1 5.0 15.0 5 5
r 1.12087 7 8 exp 500 ------- 1 5.0 15.0 0 0
+ 1.12087 8 9 exp 500 ------- 1 5.0 15.0 0 0
- 1.12087 8 9 exp 500 ------- 1 5.0 15.0 0 0
r 1.12337 5 7 exp 500 ------- 1 5.0 15.0 3 3
+ 1.12337 7 8 exp 500 ------- 1 5.0 15.0 3 3
- 1.12337 7 8 exp 500 ------- 1 5.0 15.0 3 3
+ 1.12437 5 7 exp 500 ------- 1 5.0 15.0 6 6
- 1.12437 5 7 exp 500 ------- 1 5.0 15.0 6 6
r 1.12587 7 8 exp 500 ------- 1 5.0 15.0 1 1
+ 1.12587 8 9 exp 500 ------- 1 5.0 15.0 1 1
- 1.12587 8 9 exp 500 ------- 1 5.0 15.0 1 1
r 1.12837 5 7 exp 500 ------- 1 5.0 15.0 4 4
+ 1.12837 7 8 exp 500 ------- 1 5.0 15.0 4 4
- 1.12837 7 8 exp 500 ------- 1 5.0 15.0 4 4
+ 1.12937 5 7 exp 500 ------- 1 5.0 15.0 7 7
- 1.12937 5 7 exp 500 ------- 1 5.0 15.0 7 7
r 1.13087 7 8 exp 500 ------- 1 5.0 15.0 2 2
+ 1.13087 8 9 exp 500 ------- 1 5.0 15.0 2 2
- 1.13087 8 9 exp 500 ------- 1 5.0 15.0 2 2
r 1.132537 8 9 exp 500 ------- 1 5.0 15.0 0 0
+ 1.132537 9 15 exp 500 ------- 1 5.0 15.0 0 0
- 1.132537 9 15 exp 500 ------- 1 5.0 15.0 0 0
r 1.13337 5 7 exp 500 ------- 1 5.0 15.0 5 5
+ 1.13337 7 8 exp 500 ------- 1 5.0 15.0 5 5
- 1.13337 7 8 exp 500 ------- 1 5.0 15.0 5 5
+ 1.13437 5 7 exp 500 ------- 1 5.0 15.0 8 8
- 1.13437 5 7 exp 500 ------- 1 5.0 15.0 8 8
r 1.13587 7 8 exp 500 ------- 1 5.0 15.0 3 3
+ 1.13587 8 9 exp 500 ------- 1 5.0 15.0 3 3
- 1.13587 8 9 exp 500 ------- 1 5.0 15.0 3 3
r 1.137537 8 9 exp 500 ------- 1 5.0 15.0 1 1
+ 1.137537 9 15 exp 500 ------- 1 5.0 15.0 1 1
- 1.137537 9 15 exp 500 ------- 1 5.0 15.0 1 1
r 1.13837 5 7 exp 500 ------- 1 5.0 15.0 6 6
+ 1.13837 7 8 exp 500 ------- 1 5.0 15.0 6 6
- 1.13837 7 8 exp 500 ------- 1 5.0 15.0 6 6
+ 1.13937 5 7 exp 500 ------- 1 5.0 15.0 9 9
- 1.13937 5 7 exp 500 ------- 1 5.0 15.0 9 9
r 1.14087 7 8 exp 500 ------- 1 5.0 15.0 4 4
+ 1.14087 8 9 exp 500 ------- 1 5.0 15.0 4 4
- 1.14087 8 9 exp 500 ------- 1 5.0 15.0 4 4
r 1.142537 8 9 exp 500 ------- 1 5.0 15.0 2 2
+ 1.142537 9 15 exp 500 ------- 1 5.0 15.0 2 2
- 1.142537 9 15 exp 500 ------- 1 5.0 15.0 2 2
r 1.14337 5 7 exp 500 ------- 1 5.0 15.0 7 7
+ 1.14337 7 8 exp 500 ------- 1 5.0 15.0 7 7
- 1.14337 7 8 exp 500 ------- 1 5.0 15.0 7 7
+ 1.14437 5 7 exp 500 ------- 1 5.0 15.0 10 10
- 1.14437 5 7 exp 500 ------- 1 5.0 15.0 10 10
r 1.14587 7 8 exp 500 ------- 1 5.0 15.0 5 5
+ 1.14587 8 9 exp 500 ------- 1 5.0 15.0 5 5
- 1.14587 8 9 exp 500 ------- 1 5.0 15.0 5 5
r 1.146537 9 15 exp 500 ------- 1 5.0 15.0 0 0
r 1.147537 8 9 exp 500 ------- 1 5.0 15.0 3 3
+ 1.147537 9 15 exp 500 ------- 1 5.0 15.0 3 3
- 1.147537 9 15 exp 500 ------- 1 5.0 15.0 3 3
r 1.14837 5 7 exp 500 ------- 1 5.0 15.0 8 8
+ 1.14837 7 8 exp 500 ------- 1 5.0 15.0 8 8
- 1.14837 7 8 exp 500 ------- 1 5.0 15.0 8 8
+ 1.14937 5 7 exp 500 ------- 1 5.0 15.0 11 11
- 1.14937 5 7 exp 500 ------- 1 5.0 15.0 11 11
r 1.15087 7 8 exp 500 ------- 1 5.0 15.0 6 6
+ 1.15087 8 9 exp 500 ------- 1 5.0 15.0 6 6
- 1.15087 8 9 exp 500 ------- 1 5.0 15.0 6 6
r 1.151537 9 15 exp 500 ------- 1 5.0 15.0 1 1
r 1.152537 8 9 exp 500 ------- 1 5.0 15.0 4 4
+ 1.152537 9 15 exp 500 ------- 1 5.0 15.0 4 4
- 1.152537 9 15 exp 500 ------- 1 5.0 15.0 4 4
r 1.15337 5 7 exp 500 ------- 1 5.0 15.0 9 9
+ 1.15337 7 8 exp 500 ------- 1 5.0 15.0 9 9
- 1.15337 7 8 exp 500 ------- 1 5.0 15.0 9 9
+ 1.15437 5 7 exp 500 ------- 1 5.0 15.0 12 12
- 1.15437 5 7 exp 500 ------- 1 5.0 15.0 12 12
r 1.15587 7 8 exp 500 ------- 1 5.0 15.0 7 7
+ 1.15587 8 9 exp 500 ------- 1 5.0 15.0 7 7
- 1.15587 8 9 exp 500 ------- 1 5.0 15.0 7 7
r 1.156537 9 15 exp 500 ------- 1 5.0 15.0 2 2
r 1.157537 8 9 exp 500 ------- 1 5.0 15.0 5 5
+ 1.157537 9 15 exp 500 ------- 1 5.0 15.0 5 5
- 1.157537 9 15 exp 500 ------- 1 5.0 15.0 5 5
r 1.15837 5 7 exp 500 ------- 1 5.0 15.0 10 10
+ 1.15837 7 8 exp 500 ------- 1 5.0 15.0 10 10
- 1.15837 7 8 exp 500 ------- 1 5.0 15.0 10 10
+ 1.15937 5 7 exp 500 ------- 1 5.0 15.0 13 13
- 1.15937 5 7 exp 500 ------- 1 5.0 15.0 13 13
r 1.16087 7 8 exp 500 ------- 1 5.0 15.0 8 8
+ 1.16087 8 9 exp 500 ------- 1 5.0 15.0 8 8
- 1.16087 8 9 exp 500 ------- 1 5.0 15.0 8 8
r 1.161537 9 15 exp 500 ------- 1 5.0 15.0 3 3
r 1.162537 8 9 exp 500 ------- 1 5.0 15.0 6 6
+ 1.162537 9 15 exp 500 ------- 1 5.0 15.0 6 6
- 1.162537 9 15 exp 500 ------- 1 5.0 15.0 6 6
r 1.16337 5 7 exp 500 ------- 1 5.0 15.0 11 11
+ 1.16337 7 8 exp 500 ------- 1 5.0 15.0 11 11
- 1.16337 7 8 exp 500 ------- 1 5.0 15.0 11 11
+ 1.16437 5 7 exp 500 ------- 1 5.0 15.0 14 14
- 1.16437 5 7 exp 500 ------- 1 5.0 15.0 14 14
r 1.16587 7 8 exp 500 ------- 1 5.0 15.0 9 9
+ 1.16587 8 9 exp 500 ------- 1 5.0 15.0 9 9
- 1.16587 8 9 exp 500 ------- 1 5.0 15.0 9 9
r 1.166537 9 15 exp 500 ------- 1 5.0 15.0 4 4
r 1.167537 8 9 exp 500 ------- 1 5.0 15.0 7 7
+ 1.167537 9 15 exp 500 ------- 1 5.0 15.0 7 7
- 1.167537 9 15 exp 500 ------- 1 5.0 15.0 7 7
r 1.16837 5 7 exp 500 ------- 1 5.0 15.0 12 12
+ 1.16837 7 8 exp 500 ------- 1 5.0 15.0 12 12
- 1.16837 7 8 exp 500 ------- 1 5.0 15.0 12 12
+ 1.16937 5 7 exp 500 ------- 1 5.0 15.0 15 15
- 1.16937 5 7 exp 500 ------- 1 5.0 15.0 15 15
r 1.17087 7 8 exp 500 ------- 1 5.0 15.0 10 10
+ 1.17087 8 9 exp 500 ------- 1 5.0 15.0 10 10
- 1.17087 8 9 exp 500 ------- 1 5.0 15.0 10 10
r 1.171537 9 15 exp 500 ------- 1 5.0 15.0 5 5
r 1.172537 8 9 exp 500 ------- 1 5.0 15.0 8 8
+ 1.172537 9 15 exp 500 ------- 1 5.0 15.0 8 8
- 1.172537 9 15 exp 500 ------- 1 5.0 15.0 8 8
r 1.17337 5 7 exp 500 ------- 1 5.0 15.0 13 13
+ 1.17337 7 8 exp 500 ------- 1 5.0 15.0 13 13
- 1.17337 7 8 exp 500 ------- 1 5.0 15.0 13 13
+ 1.17437 5 7 exp 500 ------- 1 5.0 15.0 16 16
- 1.17437 5 7 exp 500 ------- 1 5.0 15.0 16 16
r 1.17587 7 8 exp 500 ------- 1 5.0 15.0 11 11
+ 1.17587 8 9 exp 500 ------- 1 5.0 15.0 11 11
- 1.17587 8 9 exp 500 ------- 1 5.0 15.0 11 11
r 1.176537 9 15 exp 500 ------- 1 5.0 15.0 6 6
r 1.177537 8 9 exp 500 ------- 1 5.0 15.0 9 9
+ 1.177537 9 15 exp 500 ------- 1 5.0 15.0 9 9
- 1.177537 9 15 exp 500 ------- 1 5.0 15.0 9 9
r 1.17837 5 7 exp 500 ------- 1 5.0 15.0 14 14
+ 1.17837 7 8 exp 500 ------- 1 5.0 15.0 14 14
- 1.17837 7 8 exp 500 ------- 1 5.0 15.0 14 14
+ 1.17937 5 7 exp 500 ------- 1 5.0 15.0 17 17
- 1.17937 5 7 exp 500 ------- 1 5.0 15.0 17 17
r 1.18087 7 8 exp 500 ------- 1 5.0 15.0 12 12
+ 1.18087 8 9 exp 500 ------- 1 5.0 15.0 12 12
- 1.18087 8 9 exp 500 ------- 1 5.0 15.0 12 12
r 1.181537 9 15 exp 500 ------- 1 5.0 15.0 7 7
r 1.182537 8 9 exp 500 ------- 1 5.0 15.0 10 10
+ 1.182537 9 15 exp 500 ------- 1 5.0 15.0 10 10
- 1.182537 9 15 exp 500 ------- 1 5.0 15.0 10 10
r 1.18337 5 7 exp 500 ------- 1 5.0 15.0 15 15
+ 1.18337 7 8 exp 500 ------- 1 5.0 15.0 15 15
- 1.18337 7 8 exp 500 ------- 1 5.0 15.0 15 15
+ 1.18437 5 7 exp 500 ------- 1 5.0 15.0 18 18
- 1.18437 5 7 exp 500 ------- 1 5.0 15.0 18 18
r 1.18587 7 8 exp 500 ------- 1 5.0 15.0 13 13
+ 1.18587 8 9 exp 500 ------- 1 5.0 15.0 13 13
- 1.18587 8 9 exp 500 ------- 1 5.0 15.0 13 13
r 1.186537 9 15 exp 500 ------- 1 5.0 15.0 8 8
r 1.187537 8 9 exp 500 ------- 1 5.0 15.0 11 11
+ 1.187537 9 15 exp 500 ------- 1 5.0 15.0 11 11
- 1.187537 9 15 exp 500 ------- 1 5.0 15.0 11 11
r 1.18837 5 7 exp 500 ------- 1 5.0 15.0 16 16
+ 1.18837 7 8 exp 500 ------- 1 5.0 15.0 16 16
- 1.18837 7 8 exp 500 ------- 1 5.0 15.0 16 16
+ 1.18937 5 7 exp 500 ------- 1 5.0 15.0 19 19
- 1.18937 5 7 exp 500 ------- 1 5.0 15.0 19 19
r 1.19087 7 8 exp 500 ------- 1 5.0 15.0 14 14
+ 1.19087 8 9 exp 500 ------- 1 5.0 15.0 14 14
- 1.19087 8 9 exp 500 ------- 1 5.0 15.0 14 14
r 1.191537 9 15 exp 500 ------- 1 5.0 15.0 9 9
r 1.192537 8 9 exp 500 ------- 1 5.0 15.0 12 12
+ 1.192537 9 15 exp 500 ------- 1 5.0 15.0 12 12
- 1.192537 9 15 exp 500 ------- 1 5.0 15.0 12 12
r 1.19337 5 7 exp 500 ------- 1 5.0 15.0 17 17
+ 1.19337 7 8 exp 500 ------- 1 5.0 15.0 17 17
- 1.19337 7 8 exp 500 ------- 1 5.0 15.0 17 17
+ 1.19437 5 7 exp 500 ------- 1 5.0 15.0 20 20
- 1.19437 5 7 exp 500 ------- 1 5.0 15.0 20 20
r 1.19587 7 8 exp 500 ------- 1 5.0 15.0 15 15
+ 1.19587 8 9 exp 500 ------- 1 5.0 15.0 15 15
- 1.19587 8 9 exp 500 ------- 1 5.0 15.0 15 15
r 1.196537 9 15 exp 500 ------- 1 5.0 15.0 10 10
r 1.197537 8 9 exp 500 ------- 1 5.0 15.0 13 13
+ 1.197537 9 15 exp 500 ------- 1 5.0 15.0 13 13
- 1.197537 9 15 exp 500 ------- 1 5.0 15.0 13 13
r 1.19837 5 7 exp 500 ------- 1 5.0 15.0 18 18
+ 1.19837 7 8 exp 500 ------- 1 5.0 15.0 18 18
- 1.19837 7 8 exp 500 ------- 1 5.0 15.0 18 18
+ 1.19937 5 7 exp 500 ------- 1 5.0 15.0 21 21
- 1.19937 5 7 exp 500 ------- 1 5.0 15.0 21 21
r 1.20087 7 8 exp 500 ------- 1 5.0 15.0 16 16
+ 1.20087 8 9 exp 500 ------- 1 5.0 15.0 16 16
- 1.20087 8 9 exp 500 ------- 1 5.0 15.0 16 16
r 1.201537 9 15 exp 500 ------- 1 5.0 15.0 11 11
r 1.202537 8 9 exp 500 ------- 1 5.0 15.0 14 14
+ 1.202537 9 15 exp 500 ------- 1 5.0 15.0 14 14
- 1.202537 9 15 exp 500 ------- 1 5.0 15.0 14 14
r 1.20337 5 7 exp 500 ------- 1 5.0 15.0 19 19
+ 1.20337 7 8 exp 500 ------- 1 5.0 15.0 19 19
- 1.20337 7 8 exp 500 ------- 1 5.0 15.0 19 19
+ 1.20437 5 7 exp 500 ------- 1 5.0 15.0 22 22
- 1.20437 5 7 exp 500 ------- 1 5.0 15.0 22 22
r 1.20587 7 8 exp 500 ------- 1 5.0 15.0 17 17
+ 1.20587 8 9 exp 500 ------- 1 5.0 15.0 17 17
- 1.20587 8 9 exp 500 ------- 1 5.0 15.0 17 17
r 1.206537 9 15 exp 500 ------- 1 5.0 15.0 12 12
r 1.207537 8 9 exp 500 ------- 1 5.0 15.0 15 15
+ 1.207537 9 15 exp 500 ------- 1 5.0 15.0 15 15
- 1.207537 9 15 exp 500 ------- 1 5.0 15.0 15 15
r 1.20837 5 7 exp 500 ------- 1 5.0 15.0 20 20
+ 1.20837 7 8 exp 500 ------- 1 5.0 15.0 20 20
- 1.20837 7 8 exp 500 ------- 1 5.0 15.0 20 20
+ 1.20937 5 7 exp 500 ------- 1 5.0 15.0 23 23
- 1.20937 5 7 exp 500 ------- 1 5.0 15.0 23 23
r 1.21087 7 8 exp 500 ------- 1 5.0 15.0 18 18
+ 1.21087 8 9 exp 500 ------- 1 5.0 15.0 18 18
- 1.21087 8 9 exp 500 ------- 1 5.0 15.0 18 18
r 1.211537 9 15 exp 500 ------- 1 5.0 15.0 13 13
r 1.212537 8 9 exp 500 ------- 1 5.0 15.0 16 16
+ 1.212537 9 15 exp 500 ------- 1 5.0 15.0 16 16
- 1.212537 9 15 exp 500 ------- 1 5.0 15.0 16 16
r 1.21337 5 7 exp 500 ------- 1 5.0 15.0 21 21
+ 1.21337 7 8 exp 500 ------- 1 5.0 15.0 21 21
- 1.21337 7 8 exp 500 ------- 1 5.0 15.0 21 21
+ 1.21437 5 7 exp 500 ------- 1 5.0 15.0 24 24
- 1.21437 5 7 exp 500 ------- 1 5.0 15.0 24 24
r 1.21587 7 8 exp 500 ------- 1 5.0 15.0 19 19
+ 1.21587 8 9 exp 500 ------- 1 5.0 15.0 19 19
- 1.21587 8 9 exp 500 ------- 1 5.0 15.0 19 19
r 1.216537 9 15 exp 500 ------- 1 5.0 15.0 14 14
r 1.217537 8 9 exp 500 ------- 1 5.0 15.0 17 17
+ 1.217537 9 15 exp 500 ------- 1 5.0 15.0 17 17
- 1.217537 9 15 exp 500 ------- 1 5.0 15.0 17 17
r 1.21837 5 7 exp 500 ------- 1 5.0 15.0 22 22
+ 1.21837 7 8 exp 500 ------- 1 5.0 15.0 22 22
- 1.21837 7 8 exp 500 ------- 1 5.0 15.0 22 22
+ 1.21937 5 7 exp 500 ------- 1 5.0 15.0 25 25
- 1.21937 5 7 exp 500 ------- 1 5.0 15.0 25 25
r 1.22087 7 8 exp 500 ------- 1 5.0 15.0 20 20
+ 1.22087 8 9 exp 500 ------- 1 5.0 15.0 20 20
- 1.22087 8 9 exp 500 ------- 1 5.0 15.0 20 20
r 1.221537 9 15 exp 500 ------- 1 5.0 15.0 15 15
r 1.222537 8 9 exp 500 ------- 1 5.0 15.0 18 18
+ 1.222537 9 15 exp 500 ------- 1 5.0 15.0 18 18
- 1.222537 9 15 exp 500 ------- 1 5.0 15.0 18 18
r 1.22337 5 7 exp 500 ------- 1 5.0 15.0 23 23
+ 1.22337 7 8 exp 500 ------- 1 5.0 15.0 23 23
- 1.22337 7 8 exp 500 ------- 1 5.0 15.0 23 23
+ 1.22437 5 7 exp 500 ------- 1 5.0 15.0 26 26
- 1.22437 5 7 exp 500 ------- 1 5.0 15.0 26 26
r 1.22587 7 8 exp 500 ------- 1 5.0 15.0 21 21
+ 1.22587 8 9 exp 500 ------- 1 5.0 15.0 21 21
- 1.22587 8 9 exp 500 ------- 1 5.0 15.0 21 21
r 1.226537 9 15 exp 500 ------- 1 5.0 15.0 16 16
r 1.227537 8 9 exp 500 ------- 1 5.0 15.0 19 19
+ 1.227537 9 15 exp 500 ------- 1 5.0 15.0 19 19
- 1.227537 9 15 exp 500 ------- 1 5.0 15.0 19 19
r 1.22837 5 7 exp 500 ------- 1 5.0 15.0 24 24
+ 1.22837 7 8 exp 500 ------- 1 5.0 15.0 24 24
- 1.22837 7 8 exp 500 ------- 1 5.0 15.0 24 24
+ 1.229031 4 7 exp 500 ------- 1 4.0 14.0 0 27
- 1.229031 4 7 exp 500 ------- 1 4.0 14.0 0 27
+ 1.22937 5 7 exp 500 ------- 1 5.0 15.0 27 28
- 1.22937 5 7 exp 500 ------- 1 5.0 15.0 27 28
r 1.23087 7 8 exp 500 ------- 1 5.0 15.0 22 22
+ 1.23087 8 9 exp 500 ------- 1 5.0 15.0 22 22
- 1.23087 8 9 exp 500 ------- 1 5.0 15.0 22 22
r 1.231537 9 15 exp 500 ------- 1 5.0 15.0 17 17
r 1.232537 8 9 exp 500 ------- 1 5.0 15.0 20 20
+ 1.232537 9 15 exp 500 ------- 1 5.0 15.0 20 20
- 1.232537 9 15 exp 500 ------- 1 5.0 15.0 20 20
r 1.23337 5 7 exp 500 ------- 1 5.0 15.0 25 25
+ 1.23337 7 8 exp 500 ------- 1 5.0 15.0 25 25
- 1.23337 7 8 exp 500 ------- 1 5.0 15.0 25 25
+ 1.234031 4 7 exp 500 ------- 1 4.0 14.0 1 29
- 1.234031 4 7 exp 500 ------- 1 4.0 14.0 1 29
+ 1.23437 5 7 exp 500 ------- 1 5.0 15.0 28 30
- 1.23437 5 7 exp 500 ------- 1 5.0 15.0 28 30
r 1.23587 7 8 exp 500 ------- 1 5.0 15.0 23 23
+ 1.23587 8 9 exp 500 ------- 1 5.0 15.0 23 23
- 1.23587 8 9 exp 500 ------- 1 5.0 15.0 23 23
r 1.236537 9 15 exp 500 ------- 1 5.0 15.0 18 18
r 1.237537 8 9 exp 500 ------- 1 5.0 15.0 21 21
+ 1.237537 9 15 exp 500 ------- 1 5.0 15.0 21 21
- 1.237537 9 15 exp 500 ------- 1 5.0 15.0 21 21
r 1.23837 5 7 exp 500 ------- 1 5.0 15.0 26 26
+ 1.23837 7 8 exp 500 ------- 1 5.0 15.0 26 26
- 1.23837 7 8 exp 500 ------- 1 5.0 15.0 26 26
+ 1.239031 4 7 exp 500 ------- 1 4.0 14.0 2 31
- 1.239031 4 7 exp 500 ------- 1 4.0 14.0 2 31
+ 1.23937 5 7 exp 500 ------- 1 5.0 15.0 29 32
- 1.23937 5 7 exp 500 ------- 1 5.0 15.0 29 32
r 1.24087 7 8 exp 500 ------- 1 5.0 15.0 24 24
+ 1.24087 8 9 exp 500 ------- 1 5.0 15.0 24 24
- 1.24087 8 9 exp 500 ------- 1 5.0 15.0 24 24
r 1.241537 9 15 exp 500 ------- 1 5.0 15.0 19 19
r 1.242537 8 9 exp 500 ------- 1 5.0 15.0 22 22
+ 1.242537 9 15 exp 500 ------- 1 5.0 15.0 22 22
- 1.242537 9 15 exp 500 ------- 1 5.0 15.0 22 22
r 1.243031 4 7 exp 500 ------- 1 4.0 14.0 0 27
+ 1.243031 7 8 exp 500 ------- 1 4.0 14.0 0 27
- 1.243031 7 8 exp 500 ------- 1 4.0 14.0 0 27
r 1.24337 5 7 exp 500 ------- 1 5.0 15.0 27 28
+ 1.24337 7 8 exp 500 ------- 1 5.0 15.0 27 28
+ 1.244031 4 7 exp 500 ------- 1 4.0 14.0 3 33
- 1.244031 4 7 exp 500 ------- 1 4.0 14.0 3 33
+ 1.24437 5 7 exp 500 ------- 1 5.0 15.0 30 34
- 1.24437 5 7 exp 500 ------- 1 5.0 15.0 30 34
- 1.245531 7 8 exp 500 ------- 1 5.0 15.0 27 28
r 1.24587 7 8 exp 500 ------- 1 5.0 15.0 25 25
+ 1.24587 8 9 exp 500 ------- 1 5.0 15.0 25 25
- 1.24587 8 9 exp 500 ------- 1 5.0 15.0 25 25
r 1.246537 9 15 exp 500 ------- 1 5.0 15.0 20 20
r 1.247537 8 9 exp 500 ------- 1 5.0 15.0 23 23
+ 1.247537 9 15 exp 500 ------- 1 5.0 15.0 23 23
- 1.247537 9 15 exp 500 ------- 1 5.0 15.0 23 23
r 1.248031 4 7 exp 500 ------- 1 4.0 14.0 1 29
+ 1.248031 7 8 exp 500 ------- 1 4.0 14.0 1 29
- 1.248031 7 8 exp 500 ------- 1 4.0 14.0 1 29
r 1.24837 5 7 exp 500 ------- 1 5.0 15.0 28 30
+ 1.24837 7 8 exp 500 ------- 1 5.0 15.0 28 30
+ 1.249031 4 7 exp 500 ------- 1 4.0 14.0 4 35
- 1.249031 4 7 exp 500 ------- 1 4.0 14.0 4 35
+ 1.24937 5 7 exp 500 ------- 1 5.0 15.0 31 36
- 1.24937 5 7 exp 500 ------- 1 5.0 15.0 31 36
- 1.250531 7 8 exp 500 ------- 1 5.0 15.0 28 30
r 1.25087 7 8 exp 500 ------- 1 5.0 15.0 26 26
+ 1.25087 8 9 exp 500 ------- 1 5.0 15.0 26 26
- 1.25087 8 9 exp 500 ------- 1 5.0 15.0 26 26
r 1.251537 9 15 exp 500 ------- 1 5.0 15.0 21 21
r 1.252537 8 9 exp 500 ------- 1 5.0 15.0 24 24
+ 1.252537 9 15 exp 500 ------- 1 5.0 15.0 24 24
- 1.252537 9 15 exp 500 ------- 1 5.0 15.0 24 24
r 1.253031 4 7 exp 500 ------- 1 4.0 14.0 2 31
+ 1.253031 7 8 exp 500 ------- 1 4.0 14.0 2 31
- 1.253031 7 8 exp 500 ------- 1 4.0 14.0 2 31
r 1.25337 5 7 exp 500 ------- 1 5.0 15.0 29 32
+ 1.25337 7 8 exp 500 ------- 1 5.0 15.0 29 32
+ 1.254031 4 7 exp 500 ------- 1 4.0 14.0 5 37
- 1.254031 4 7 exp 500 ------- 1 4.0 14.0 5 37
+ 1.25437 5 7 exp 500 ------- 1 5.0 15.0 32 38
- 1.25437 5 7 exp 500 ------- 1 5.0 15.0 32 38
- 1.255531 7 8 exp 500 ------- 1 5.0 15.0 29 32
r 1.255531 7 8 exp 500 ------- 1 4.0 14.0 0 27
+ 1.255531 8 9 exp 500 ------- 1 4.0 14.0 0 27
- 1.255531 8 9 exp 500 ------- 1 4.0 14.0 0 27
r 1.256537 9 15 exp 500 ------- 1 5.0 15.0 22 22
r 1.257537 8 9 exp 500 ------- 1 5.0 15.0 25 25
+ 1.257537 9 15 exp 500 ------- 1 5.0 15.0 25 25
- 1.257537 9 15 exp 500 ------- 1 5.0 15.0 25 25
r 1.258031 4 7 exp 500 ------- 1 4.0 14.0 3 33
+ 1.258031 7 8 exp 500 ------- 1 4.0 14.0 3 33
- 1.258031 7 8 exp 500 ------- 1 4.0 14.0 3 33
r 1.258031 7 8 exp 500 ------- 1 5.0 15.0 27 28
+ 1.258031 8 9 exp 500 ------- 1 5.0 15.0 27 28
- 1.258031 8 9 exp 500 ------- 1 5.0 15.0 27 28
r 1.25837 5 7 exp 500 ------- 1 5.0 15.0 30 34
+ 1.25837 7 8 exp 500 ------- 1 5.0 15.0 30 34
+ 1.259031 4 7 exp 500 ------- 1 4.0 14.0 6 39
- 1.259031 4 7 exp 500 ------- 1 4.0 14.0 6 39
+ 1.25937 5 7 exp 500 ------- 1 5.0 15.0 33 40
- 1.25937 5 7 exp 500 ------- 1 5.0 15.0 33 40
- 1.260531 7 8 exp 500 ------- 1 5.0 15.0 30 34
r 1.260531 7 8 exp 500 ------- 1 4.0 14.0 1 29
+ 1.260531 8 9 exp 500 ------- 1 4.0 14.0 1 29
- 1.260531 8 9 exp 500 ------- 1 4.0 14.0 1 29
r 1.261537 9 15 exp 500 ------- 1 5.0 15.0 23 23
r 1.262537 8 9 exp 500 ------- 1 5.0 15.0 26 26
+ 1.262537 9 15 exp 500 ------- 1 5.0 15.0 26 26
- 1.262537 9 15 exp 500 ------- 1 5.0 15.0 26 26
r 1.263031 4 7 exp 500 ------- 1 4.0 14.0 4 35
+ 1.263031 7 8 exp 500 ------- 1 4.0 14.0 4 35
- 1.263031 7 8 exp 500 ------- 1 4.0 14.0 4 35
r 1.263031 7 8 exp 500 ------- 1 5.0 15.0 28 30
+ 1.263031 8 9 exp 500 ------- 1 5.0 15.0 28 30
- 1.263031 8 9 exp 500 ------- 1 5.0 15.0 28 30
r 1.26337 5 7 exp 500 ------- 1 5.0 15.0 31 36
+ 1.26337 7 8 exp 500 ------- 1 5.0 15.0 31 36
+ 1.264031 4 7 exp 500 ------- 1 4.0 14.0 7 41
- 1.264031 4 7 exp 500 ------- 1 4.0 14.0 7 41
+ 1.26437 5 7 exp 500 ------- 1 5.0 15.0 34 42
- 1.26437 5 7 exp 500 ------- 1 5.0 15.0 34 42
- 1.265531 7 8 exp 500 ------- 1 5.0 15.0 31 36
r 1.265531 7 8 exp 500 ------- 1 4.0 14.0 2 31
+ 1.265531 8 9 exp 500 ------- 1 4.0 14.0 2 31
- 1.265531 8 9 exp 500 ------- 1 4.0 14.0 2 31
r 1.266537 9 15 exp 500 ------- 1 5.0 15.0 24 24
r 1.267198 8 9 exp 500 ------- 1 4.0 14.0 0 27
+ 1.267198 9 14 exp 500 ------- 1 4.0 14.0 0 27
- 1.267198 9 14 exp 500 ------- 1 4.0 14.0 0 27
r 1.268031 4 7 exp 500 ------- 1 4.0 14.0 5 37
+ 1.268031 7 8 exp 500 ------- 1 4.0 14.0 5 37
- 1.268031 7 8 exp 500 ------- 1 4.0 14.0 5 37
r 1.268031 7 8 exp 500 ------- 1 5.0 15.0 29 32
+ 1.268031 8 9 exp 500 ------- 1 5.0 15.0 29 32
- 1.268031 8 9 exp 500 ------- 1 5.0 15.0 29 32
r 1.26837 5 7 exp 500 ------- 1 5.0 15.0 32 38
+ 1.26837 7 8 exp 500 ------- 1 5.0 15.0 32 38
+ 1.269031 4 7 exp 500 ------- 1 4.0 14.0 8 43
- 1.269031 4 7 exp 500 ------- 1 4.0 14.0 8 43
+ 1.26937 5 7 exp 500 ------- 1 5.0 15.0 35 44
- 1.26937 5 7 exp 500 ------- 1 5.0 15.0 35 44
r 1.269698 8 9 exp 500 ------- 1 5.0 15.0 27 28
+ 1.269698 9 15 exp 500 ------- 1 5.0 15.0 27 28
- 1.269698 9 15 exp 500 ------- 1 5.0 15.0 27 28
- 1.270531 7 8 exp 500 ------- 1 5.0 15.0 32 38
r 1.270531 7 8 exp 500 ------- 1 4.0 14.0 3 33
+ 1.270531 8 9 exp 500 ------- 1 4.0 14.0 3 33
- 1.270531 8 9 exp 500 ------- 1 4.0 14.0 3 33
r 1.271537 9 15 exp 500 ------- 1 5.0 15.0 25 25
r 1.272198 8 9 exp 500 ------- 1 4.0 14.0 1 29
+ 1.272198 9 14 exp 500 ------- 1 4.0 14.0 1 29
- 1.272198 9 14 exp 500 ------- 1 4.0 14.0 1 29
r 1.273031 4 7 exp 500 ------- 1 4.0 14.0 6 39
+ 1.273031 7 8 exp 500 ------- 1 4.0 14.0 6 39
- 1.273031 7 8 exp 500 ------- 1 4.0 14.0 6 39
r 1.273031 7 8 exp 500 ------- 1 5.0 15.0 30 34
+ 1.273031 8 9 exp 500 ------- 1 5.0 15.0 30 34
- 1.273031 8 9 exp 500 ------- 1 5.0 15.0 30 34
r 1.27337 5 7 exp 500 ------- 1 5.0 15.0 33 40
+ 1.27337 7 8 exp 500 ------- 1 5.0 15.0 33 40
+ 1.274031 4 7 exp 500 ------- 1 4.0 14.0 9 45
- 1.274031 4 7 exp 500 ------- 1 4.0 14.0 9 45
+ 1.27437 5 7 exp 500 ------- 1 5.0 15.0 36 46
- 1.27437 5 7 exp 500 ------- 1 5.0 15.0 36 46
r 1.274698 8 9 exp 500 ------- 1 5.0 15.0 28 30
+ 1.274698 9 15 exp 500 ------- 1 5.0 15.0 28 30
- 1.274698 9 15 exp 500 ------- 1 5.0 15.0 28 30
- 1.275531 7 8 exp 500 ------- 1 5.0 15.0 33 40
r 1.275531 7 8 exp 500 ------- 1 4.0 14.0 4 35
+ 1.275531 8 9 exp 500 ------- 1 4.0 14.0 4 35
- 1.275531 8 9 exp 500 ------- 1 4.0 14.0 4 35
r 1.276537 9 15 exp 500 ------- 1 5.0 15.0 26 26
r 1.277198 8 9 exp 500 ------- 1 4.0 14.0 2 31
+ 1.277198 9 14 exp 500 ------- 1 4.0 14.0 2 31
- 1.277198 9 14 exp 500 ------- 1 4.0 14.0 2 31
r 1.278031 4 7 exp 500 ------- 1 4.0 14.0 7 41
+ 1.278031 7 8 exp 500 ------- 1 4.0 14.0 7 41
- 1.278031 7 8 exp 500 ------- 1 4.0 14.0 7 41
r 1.278031 7 8 exp 500 ------- 1 5.0 15.0 31 36
+ 1.278031 8 9 exp 500 ------- 1 5.0 15.0 31 36
- 1.278031 8 9 exp 500 ------- 1 5.0 15.0 31 36
r 1.27837 5 7 exp 500 ------- 1 5.0 15.0 34 42
+ 1.27837 7 8 exp 500 ------- 1 5.0 15.0 34 42
+ 1.279031 4 7 exp 500 ------- 1 4.0 14.0 10 47
- 1.279031 4 7 exp 500 ------- 1 4.0 14.0 10 47
+ 1.27937 5 7 exp 500 ------- 1 5.0 15.0 37 48
- 1.27937 5 7 exp 500 ------- 1 5.0 15.0 37 48
r 1.279698 8 9 exp 500 ------- 1 5.0 15.0 29 32
+ 1.279698 9 15 exp 500 ------- 1 5.0 15.0 29 32
- 1.279698 9 15 exp 500 ------- 1 5.0 15.0 29 32
- 1.280531 7 8 exp 500 ------- 1 5.0 15.0 34 42
r 1.280531 7 8 exp 500 ------- 1 4.0 14.0 5 37
+ 1.280531 8 9 exp 500 ------- 1 4.0 14.0 5 37
- 1.280531 8 9 exp 500 ------- 1 4.0 14.0 5 37
r 1.281198 9 14 exp 500 ------- 1 4.0 14.0 0 27
r 1.282198 8 9 exp 500 ------- 1 4.0 14.0 3 33
+ 1.282198 9 14 exp 500 ------- 1 4.0 14.0 3 33
- 1.282198 9 14 exp 500 ------- 1 4.0 14.0 3 33
r 1.283031 4 7 exp 500 ------- 1 4.0 14.0 8 43
+ 1.283031 7 8 exp 500 ------- 1 4.0 14.0 8 43
- 1.283031 7 8 exp 500 ------- 1 4.0 14.0 8 43
r 1.283031 7 8 exp 500 ------- 1 5.0 15.0 32 38
+ 1.283031 8 9 exp 500 ------- 1 5.0 15.0 32 38
- 1.283031 8 9 exp 500 ------- 1 5.0 15.0 32 38
r 1.28337 5 7 exp 500 ------- 1 5.0 15.0 35 44
+ 1.28337 7 8 exp 500 ------- 1 5.0 15.0 35 44
r 1.283698 9 15 exp 500 ------- 1 5.0 15.0 27 28
+ 1.284031 4 7 exp 500 ------- 1 4.0 14.0 11 49
- 1.284031 4 7 exp 500 ------- 1 4.0 14.0 11 49
+ 1.28437 5 7 exp 500 ------- 1 5.0 15.0 38 50
- 1.28437 5 7 exp 500 ------- 1 5.0 15.0 38 50
r 1.284698 8 9 exp 500 ------- 1 5.0 15.0 30 34
+ 1.284698 9 15 exp 500 ------- 1 5.0 15.0 30 34
- 1.284698 9 15 exp 500 ------- 1 5.0 15.0 30 34
- 1.285531 7 8 exp 500 ------- 1 5.0 15.0 35 44
r 1.285531 7 8 exp 500 ------- 1 4.0 14.0 6 39
+ 1.285531 8 9 exp 500 ------- 1 4.0 14.0 6 39
- 1.285531 8 9 exp 500 ------- 1 4.0 14.0 6 39
r 1.286198 9 14 exp 500 ------- 1 4.0 14.0 1 29
r 1.287198 8 9 exp 500 ------- 1 4.0 14.0 4 35
+ 1.287198 9 14 exp 500 ------- 1 4.0 14.0 4 35
- 1.287198 9 14 exp 500 ------- 1 4.0 14.0 4 35
r 1.288031 4 7 exp 500 ------- 1 4.0 14.0 9 45
+ 1.288031 7 8 exp 500 ------- 1 4.0 14.0 9 45
- 1.288031 7 8 exp 500 ------- 1 4.0 14.0 9 45
r 1.288031 7 8 exp 500 ------- 1 5.0 15.0 33 40
+ 1.288031 8 9 exp 500 ------- 1 5.0 15.0 33 40
- 1.288031 8 9 exp 500 ------- 1 5.0 15.0 33 40
r 1.28837 5 7 exp 500 ------- 1 5.0 15.0 36 46
+ 1.28837 7 8 exp 500 ------- 1 5.0 15.0 36 46
r 1.288698 9 15 exp 500 ------- 1 5.0 15.0 28 30
+ 1.289031 4 7 exp 500 ------- 1 4.0 14.0 12 51
- 1.289031 4 7 exp 500 ------- 1 4.0 14.0 12 51
+ 1.28937 5 7 exp 500 ------- 1 5.0 15.0 39 52
- 1.28937 5 7 exp 500 ------- 1 5.0 15.0 39 52
r 1.289698 8 9 exp 500 ------- 1 5.0 15.0 31 36
+ 1.289698 9 15 exp 500 ------- 1 5.0 15.0 31 36
- 1.289698 9 15 exp 500 ------- 1 5.0 15.0 31 36
- 1.290531 7 8 exp 500 ------- 1 5.0 15.0 36 46
r 1.290531 7 8 exp 500 ------- 1 4.0 14.0 7 41
+ 1.290531 8 9 exp 500 ------- 1 4.0 14.0 7 41
- 1.290531 8 9 exp 500 ------- 1 4.0 14.0 7 41
r 1.291198 9 14 exp 500 ------- 1 4.0 14.0 2 31
r 1.292198 8 9 exp 500 ------- 1 4.0 14.0 5 37
+ 1.292198 9 14 exp 500 ------- 1 4.0 14.0 5 37
- 1.292198 9 14 exp 500 ------- 1 4.0 14.0 5 37
r 1.293031 4 7 exp 500 ------- 1 4.0 14.0 10 47
+ 1.293031 7 8 exp 500 ------- 1 4.0 14.0 10 47
- 1.293031 7 8 exp 500 ------- 1 4.0 14.0 10 47
r 1.293031 7 8 exp 500 ------- 1 5.0 15.0 34 42
+ 1.293031 8 9 exp 500 ------- 1 5.0 15.0 34 42
- 1.293031 8 9 exp 500 ------- 1 5.0 15.0 34 42
r 1.29337 5 7 exp 500 ------- 1 5.0 15.0 37 48
+ 1.29337 7 8 exp 500 ------- 1 5.0 15.0 37 48
r 1.293698 9 15 exp 500 ------- 1 5.0 15.0 29 32
+ 1.294031 4 7 exp 500 ------- 1 4.0 14.0 13 53
- 1.294031 4 7 exp 500 ------- 1 4.0 14.0 13 53
+ 1.29437 5 7 exp 500 ------- 1 5.0 15.0 40 54
- 1.29437 5 7 exp 500 ------- 1 5.0 15.0 40 54
r 1.294698 8 9 exp 500 ------- 1 5.0 15.0 32 38
+ 1.294698 9 15 exp 500 ------- 1 5.0 15.0 32 38
- 1.294698 9 15 exp 500 ------- 1 5.0 15.0 32 38
- 1.295531 7 8 exp 500 ------- 1 5.0 15.0 37 48
r 1.295531 7 8 exp 500 ------- 1 4.0 14.0 8 43
+ 1.295531 8 9 exp 500 ------- 1 4.0 14.0 8 43
- 1.295531 8 9 exp 500 ------- 1 4.0 14.0 8 43
r 1.296198 9 14 exp 500 ------- 1 4.0 14.0 3 33
r 1.297198 8 9 exp 500 ------- 1 4.0 14.0 6 39
+ 1.297198 9 14 exp 500 ------- 1 4.0 14.0 6 39
- 1.297198 9 14 exp 500 ------- 1 4.0 14.0 6 39
r 1.298031 4 7 exp 500 ------- 1 4.0 14.0 11 49
+ 1.298031 7 8 exp 500 ------- 1 4.0 14.0 11 49
- 1.298031 7 8 exp 500 ------- 1 4.0 14.0 11 49
r 1.298031 7 8 exp 500 ------- 1 5.0 15.0 35 44
+ 1.298031 8 9 exp 500 ------- 1 5.0 15.0 35 44
- 1.298031 8 9 exp 500 ------- 1 5.0 15.0 35 44
r 1.29837 5 7 exp 500 ------- 1 5.0 15.0 38 50
+ 1.29837 7 8 exp 500 ------- 1 5.0 15.0 38 50
r 1.298698 9 15 exp 500 ------- 1 5.0 15.0 30 34
+ 1.299031 4 7 exp 500 ------- 1 4.0 14.0 14 55
- 1.299031 4 7 exp 500 ------- 1 4.0 14.0 14 55
+ 1.29937 5 7 exp 500 ------- 1 5.0 15.0 41 56
- 1.29937 5 7 exp 500 ------- 1 5.0 15.0 41 56
r 1.299698 8 9 exp 500 ------- 1 5.0 15.0 33 40
+ 1.299698 9 15 exp 500 ------- 1 5.0 15.0 33 40
- 1.299698 9 15 exp 500 ------- 1 5.0 15.0 33 40
- 1.300531 7 8 exp 500 ------- 1 5.0 15.0 38 50
r 1.300531 7 8 exp 500 ------- 1 4.0 14.0 9 45
+ 1.300531 8 9 exp 500 ------- 1 4.0 14.0 9 45
- 1.300531 8 9 exp 500 ------- 1 4.0 14.0 9 45
r 1.301198 9 14 exp 500 ------- 1 4.0 14.0 4 35
r 1.302198 8 9 exp 500 ------- 1 4.0 14.0 7 41
+ 1.302198 9 14 exp 500 ------- 1 4.0 14.0 7 41
- 1.302198 9 14 exp 500 ------- 1 4.0 14.0 7 41
r 1.303031 4 7 exp 500 ------- 1 4.0 14.0 12 51
+ 1.303031 7 8 exp 500 ------- 1 4.0 14.0 12 51
- 1.303031 7 8 exp 500 ------- 1 4.0 14.0 12 51
r 1.303031 7 8 exp 500 ------- 1 5.0 15.0 36 46
+ 1.303031 8 9 exp 500 ------- 1 5.0 15.0 36 46
- 1.303031 8 9 exp 500 ------- 1 5.0 15.0 36 46
r 1.30337 5 7 exp 500 ------- 1 5.0 15.0 39 52
+ 1.30337 7 8 exp 500 ------- 1 5.0 15.0 39 52
r 1.303698 9 15 exp 500 ------- 1 5.0 15.0 31 36
+ 1.304031 4 7 exp 500 ------- 1 4.0 14.0 15 57
- 1.304031 4 7 exp 500 ------- 1 4.0 14.0 15 57
+ 1.30437 5 7 exp 500 ------- 1 5.0 15.0 42 58
- 1.30437 5 7 exp 500 ------- 1 5.0 15.0 42 58
r 1.304698 8 9 exp 500 ------- 1 5.0 15.0 34 42
+ 1.304698 9 15 exp 500 ------- 1 5.0 15.0 34 42
- 1.304698 9 15 exp 500 ------- 1 5.0 15.0 34 42
- 1.305531 7 8 exp 500 ------- 1 5.0 15.0 39 52
r 1.305531 7 8 exp 500 ------- 1 4.0 14.0 10 47
+ 1.305531 8 9 exp 500 ------- 1 4.0 14.0 10 47
- 1.305531 8 9 exp 500 ------- 1 4.0 14.0 10 47
r 1.306198 9 14 exp 500 ------- 1 4.0 14.0 5 37
r 1.307198 8 9 exp 500 ------- 1 4.0 14.0 8 43
+ 1.307198 9 14 exp 500 ------- 1 4.0 14.0 8 43
- 1.307198 9 14 exp 500 ------- 1 4.0 14.0 8 43
r 1.308031 4 7 exp 500 ------- 1 4.0 14.0 13 53
+ 1.308031 7 8 exp 500 ------- 1 4.0 14.0 13 53
- 1.308031 7 8 exp 500 ------- 1 4.0 14.0 13 53
r 1.308031 7 8 exp 500 ------- 1 5.0 15.0 37 48
+ 1.308031 8 9 exp 500 ------- 1 5.0 15.0 37 48
- 1.308031 8 9 exp 500 ------- 1 5.0 15.0 37 48
r 1.30837 5 7 exp 500 ------- 1 5.0 15.0 40 54
+ 1.30837 7 8 exp 500 ------- 1 5.0 15.0 40 54
r 1.308698 9 15 exp 500 ------- 1 5.0 15.0 32 38
+ 1.309031 4 7 exp 500 ------- 1 4.0 14.0 16 59
- 1.309031 4 7 exp 500 ------- 1 4.0 14.0 16 59
+ 1.30937 5 7 exp 500 ------- 1 5.0 15.0 43 60
- 1.30937 5 7 exp 500 ------- 1 5.0 15.0 43 60
r 1.309698 8 9 exp 500 ------- 1 5.0 15.0 35 44
+ 1.309698 9 15 exp 500 ------- 1 5.0 15.0 35 44
- 1.309698 9 15 exp 500 ------- 1 5.0 15.0 35 44
- 1.310531 7 8 exp 500 ------- 1 5.0 15.0 40 54
r 1.310531 7 8 exp 500 ------- 1 4.0 14.0 11 49
+ 1.310531 8 9 exp 500 ------- 1 4.0 14.0 11 49
- 1.310531 8 9 exp 500 ------- 1 4.0 14.0 11 49
r 1.311198 9 14 exp 500 ------- 1 4.0 14.0 6 39
r 1.312198 8 9 exp 500 ------- 1 4.0 14.0 9 45
+ 1.312198 9 14 exp 500 ------- 1 4.0 14.0 9 45
- 1.312198 9 14 exp 500 ------- 1 4.0 14.0 9 45
r 1.313031 4 7 exp 500 ------- 1 4.0 14.0 14 55
+ 1.313031 7 8 exp 500 ------- 1 4.0 14.0 14 55
- 1.313031 7 8 exp 500 ------- 1 4.0 14.0 14 55
r 1.313031 7 8 exp 500 ------- 1 5.0 15.0 38 50
+ 1.313031 8 9 exp 500 ------- 1 5.0 15.0 38 50
- 1.313031 8 9 exp 500 ------- 1 5.0 15.0 38 50
r 1.31337 5 7 exp 500 ------- 1 5.0 15.0 41 56
+ 1.31337 7 8 exp 500 ------- 1 5.0 15.0 41 56
r 1.313698 9 15 exp 500 ------- 1 5.0 15.0 33 40
+ 1.314031 4 7 exp 500 ------- 1 4.0 14.0 17 61
- 1.314031 4 7 exp 500 ------- 1 4.0 14.0 17 61
+ 1.31437 5 7 exp 500 ------- 1 5.0 15.0 44 62
- 1.31437 5 7 exp 500 ------- 1 5.0 15.0 44 62
r 1.314698 8 9 exp 500 ------- 1 5.0 15.0 36 46
+ 1.314698 9 15 exp 500 ------- 1 5.0 15.0 36 46
- 1.314698 9 15 exp 500 ------- 1 5.0 15.0 36 46
- 1.315531 7 8 exp 500 ------- 1 5.0 15.0 41 56
r 1.315531 7 8 exp 500 ------- 1 4.0 14.0 12 51
+ 1.315531 8 9 exp 500 ------- 1 4.0 14.0 12 51
- 1.315531 8 9 exp 500 ------- 1 4.0 14.0 12 51