+ 1 4 7 cbr 500 ------- 1 4.0 14.0 0 0
- 1 4 7 cbr 500 ------- 1 4.0 14.0 0 0
+ 1 5 7 cbr 500 ------- 1 5.0 15.0 0 1
- 1 5 7 cbr 500 ------- 1 5.0 15.0 0 1
+ 1 0 6 tcp 40 ------- 0 0.0 10.0 0 2
- 1 0 6 tcp 40 ------- 0 0.0 10.0 0 2
+ 1 1 6 tcp 40 ------- 0 1.0 11.0 0 3
- 1 1 6 tcp 40 ------- 0 1.0 11.0 0 3
+ 1 2 6 tcp 40 ------- 0 2.0 12.0 0 4
- 1 2 6 tcp 40 ------- 0 2.0 12.0 0 4
+ 1 3 6 tcp 40 ------- 0 3.0 13.0 0 5
- 1 3 6 tcp 40 ------- 0 3.0 13.0 0 5
+ 1.005 4 7 cbr 500 ------- 1 4.0 14.0 1 6
- 1.005 4 7 cbr 500 ------- 1 4.0 14.0 1 6
+ 1.005 5 7 cbr 500 ------- 1 5.0 15.0 1 7
- 1.005 5 7 cbr 500 ------- 1 5.0 15.0 1 7
+ 1.01 4 7 cbr 500 ------- 1 4.0 14.0 2 8
- 1.01 4 7 cbr 500 ------- 1 4.0 14.0 2 8
+ 1.01 5 7 cbr 500 ------- 1 5.0 15.0 2 9
- 1.01 5 7 cbr 500 ------- 1 5.0 15.0 2 9
r 1.01032 0 6 tcp 40 ------- 0 0.0 10.0 0 2
+ 1.01032 6 8 tcp 40 ------- 0 0.0 10.0 0 2
- 1.01032 6 8 tcp 40 ------- 0 0.0 10.0 0 2
r 1.01032 1 6 tcp 40 ------- 0 1.0 11.0 0 3
+ 1.01032 6 8 tcp 40 ------- 0 1.0 11.0 0 3
r 1.01032 2 6 tcp 40 ------- 0 2.0 12.0 0 4
+ 1.01032 6 8 tcp 40 ------- 0 2.0 12.0 0 4
r 1.01032 3 6 tcp 40 ------- 0 3.0 13.0 0 5
+ 1.01032 6 8 tcp 40 ------- 0 3.0 13.0 0 5
- 1.01042 6 8 tcp 40 ------- 0 1.0 11.0 0 3
- 1.01052 6 8 tcp 40 ------- 0 2.0 12.0 0 4
- 1.01062 6 8 tcp 40 ------- 0 3.0 13.0 0 5
r 1.014 4 7 cbr 500 ------- 1 4.0 14.0 0 0
+ 1.014 7 8 cbr 500 ------- 1 4.0 14.0 0 0
- 1.014 7 8 cbr 500 ------- 1 4.0 14.0 0 0
r 1.014 5 7 cbr 500 ------- 1 5.0 15.0 0 1
+ 1.014 7 8 cbr 500 ------- 1 5.0 15.0 0 1
+ 1.015 4 7 cbr 500 ------- 1 4.0 14.0 3 10
- 1.015 4 7 cbr 500 ------- 1 4.0 14.0 3 10
+ 1.015 5 7 cbr 500 ------- 1 5.0 15.0 3 11
- 1.015 5 7 cbr 500 ------- 1 5.0 15.0 3 11
- 1.0165 7 8 cbr 500 ------- 1 5.0 15.0 0 1
r 1.019 4 7 cbr 500 ------- 1 4.0 14.0 1 6
+ 1.019 7 8 cbr 500 ------- 1 4.0 14.0 1 6
r 1.019 5 7 cbr 500 ------- 1 5.0 15.0 1 7
+ 1.019 7 8 cbr 500 ------- 1 5.0 15.0 1 7
- 1.019 7 8 cbr 500 ------- 1 4.0 14.0 1 6
+ 1.02 4 7 cbr 500 ------- 1 4.0 14.0 4 12
- 1.02 4 7 cbr 500 ------- 1 4.0 14.0 4 12
+ 1.02 5 7 cbr 500 ------- 1 5.0 15.0 4 13
- 1.02 5 7 cbr 500 ------- 1 5.0 15.0 4 13
r 1.02042 6 8 tcp 40 ------- 0 0.0 10.0 0 2
+ 1.02042 8 9 tcp 40 ------- 0 0.0 10.0 0 2
- 1.02042 8 9 tcp 40 ------- 0 0.0 10.0 0 2
r 1.02052 6 8 tcp 40 ------- 0 1.0 11.0 0 3
+ 1.02052 8 9 tcp 40 ------- 0 1.0 11.0 0 3
- 1.02054 8 9 tcp 40 ------- 0 1.0 11.0 0 3
r 1.02062 6 8 tcp 40 ------- 0 2.0 12.0 0 4
+ 1.02062 8 9 tcp 40 ------- 0 2.0 12.0 0 4
- 1.02066 8 9 tcp 40 ------- 0 2.0 12.0 0 4
r 1.02072 6 8 tcp 40 ------- 0 3.0 13.0 0 5
+ 1.02072 8 9 tcp 40 ------- 0 3.0 13.0 0 5
- 1.02078 8 9 tcp 40 ------- 0 3.0 13.0 0 5
- 1.0215 7 8 cbr 500 ------- 1 5.0 15.0 1 7
r 1.024 4 7 cbr 500 ------- 1 4.0 14.0 2 8
+ 1.024 7 8 cbr 500 ------- 1 4.0 14.0 2 8
r 1.024 5 7 cbr 500 ------- 1 5.0 15.0 2 9
+ 1.024 7 8 cbr 500 ------- 1 5.0 15.0 2 9
- 1.024 7 8 cbr 500 ------- 1 4.0 14.0 2 8
+ 1.025 4 7 cbr 500 ------- 1 4.0 14.0 5 14
- 1.025 4 7 cbr 500 ------- 1 4.0 14.0 5 14
+ 1.025 5 7 cbr 500 ------- 1 5.0 15.0 5 15
- 1.025 5 7 cbr 500 ------- 1 5.0 15.0 5 15
- 1.0265 7 8 cbr 500 ------- 1 5.0 15.0 2 9
r 1.0265 7 8 cbr 500 ------- 1 4.0 14.0 0 0
+ 1.0265 8 9 cbr 500 ------- 1 4.0 14.0 0 0
- 1.0265 8 9 cbr 500 ------- 1 4.0 14.0 0 0
r 1.029 4 7 cbr 500 ------- 1 4.0 14.0 3 10
+ 1.029 7 8 cbr 500 ------- 1 4.0 14.0 3 10
r 1.029 5 7 cbr 500 ------- 1 5.0 15.0 3 11
+ 1.029 7 8 cbr 500 ------- 1 5.0 15.0 3 11
- 1.029 7 8 cbr 500 ------- 1 4.0 14.0 3 10
r 1.029 7 8 cbr 500 ------- 1 5.0 15.0 0 1
+ 1.029 8 9 cbr 500 ------- 1 5.0 15.0 0 1
- 1.029 8 9 cbr 500 ------- 1 5.0 15.0 0 1
+ 1.03 4 7 cbr 500 ------- 1 4.0 14.0 6 16
- 1.03 4 7 cbr 500 ------- 1 4.0 14.0 6 16
+ 1.03 5 7 cbr 500 ------- 1 5.0 15.0 6 17
- 1.03 5 7 cbr 500 ------- 1 5.0 15.0 6 17
r 1.03054 8 9 tcp 40 ------- 0 0.0 10.0 0 2
+ 1.03054 9 10 tcp 40 ------- 0 0.0 10.0 0 2
- 1.03054 9 10 tcp 40 ------- 0 0.0 10.0 0 2
r 1.03066 8 9 tcp 40 ------- 0 1.0 11.0 0 3
+ 1.03066 9 11 tcp 40 ------- 0 1.0 11.0 0 3
- 1.03066 9 11 tcp 40 ------- 0 1.0 11.0 0 3
r 1.03078 8 9 tcp 40 ------- 0 2.0 12.0 0 4
+ 1.03078 9 12 tcp 40 ------- 0 2.0 12.0 0 4
- 1.03078 9 12 tcp 40 ------- 0 2.0 12.0 0 4
r 1.0309 8 9 tcp 40 ------- 0 3.0 13.0 0 5
+ 1.0309 9 13 tcp 40 ------- 0 3.0 13.0 0 5
- 1.0309 9 13 tcp 40 ------- 0 3.0 13.0 0 5
- 1.0315 7 8 cbr 500 ------- 1 5.0 15.0 3 11
r 1.0315 7 8 cbr 500 ------- 1 4.0 14.0 1 6
+ 1.0315 8 9 cbr 500 ------- 1 4.0 14.0 1 6
- 1.0315 8 9 cbr 500 ------- 1 4.0 14.0 1 6
r 1.034 4 7 cbr 500 ------- 1 4.0 14.0 4 12
+ 1.034 7 8 cbr 500 ------- 1 4.0 14.0 4 12
r 1.034 5 7 cbr 500 ------- 1 5.0 15.0 4 13
+ 1.034 7 8 cbr 500 ------- 1 5.0 15.0 4 13
- 1.034 7 8 cbr 500 ------- 1 4.0 14.0 4 12
r 1.034 7 8 cbr 500 ------- 1 5.0 15.0 1 7
+ 1.034 8 9 cbr 500 ------- 1 5.0 15.0 1 7
- 1.034 8 9 cbr 500 ------- 1 5.0 15.0 1 7
+ 1.035 4 7 cbr 500 ------- 1 4.0 14.0 7 18
- 1.035 4 7 cbr 500 ------- 1 4.0 14.0 7 18
+ 1.035 5 7 cbr 500 ------- 1 5.0 15.0 7 19
- 1.035 5 7 cbr 500 ------- 1 5.0 15.0 7 19
- 1.0365 7 8 cbr 500 ------- 1 5.0 15.0 4 13
r 1.0365 7 8 cbr 500 ------- 1 4.0 14.0 2 8
+ 1.0365 8 9 cbr 500 ------- 1 4.0 14.0 2 8
- 1.0365 8 9 cbr 500 ------- 1 4.0 14.0 2 8
r 1.038 8 9 cbr 500 ------- 1 4.0 14.0 0 0
+ 1.038 9 14 cbr 500 ------- 1 4.0 14.0 0 0
- 1.038 9 14 cbr 500 ------- 1 4.0 14.0 0 0
r 1.039 4 7 cbr 500 ------- 1 4.0 14.0 5 14
+ 1.039 7 8 cbr 500 ------- 1 4.0 14.0 5 14
r 1.039 5 7 cbr 500 ------- 1 5.0 15.0 5 15
+ 1.039 7 8 cbr 500 ------- 1 5.0 15.0 5 15
- 1.039 7 8 cbr 500 ------- 1 4.0 14.0 5 14
r 1.039 7 8 cbr 500 ------- 1 5.0 15.0 2 9
+ 1.039 8 9 cbr 500 ------- 1 5.0 15.0 2 9
- 1.039 8 9 cbr 500 ------- 1 5.0 15.0 2 9
+ 1.04 4 7 cbr 500 ------- 1 4.0 14.0 8 20
- 1.04 4 7 cbr 500 ------- 1 4.0 14.0 8 20
+ 1.04 5 7 cbr 500 ------- 1 5.0 15.0 8 21
- 1.04 5 7 cbr 500 ------- 1 5.0 15.0 8 21
r 1.0405 8 9 cbr 500 ------- 1 5.0 15.0 0 1
+ 1.0405 9 15 cbr 500 ------- 1 5.0 15.0 0 1
- 1.0405 9 15 cbr 500 ------- 1 5.0 15.0 0 1
r 1.04086 9 10 tcp 40 ------- 0 0.0 10.0 0 2
+ 1.04086 10 9 ack 40 ------- 0 10.0 0.0 0 22
- 1.04086 10 9 ack 40 ------- 0 10.0 0.0 0 22
r 1.04098 9 11 tcp 40 ------- 0 1.0 11.0 0 3
+ 1.04098 11 9 ack 40 ------- 0 11.0 1.0 0 23
- 1.04098 11 9 ack 40 ------- 0 11.0 1.0 0 23
r 1.0411 9 12 tcp 40 ------- 0 2.0 12.0 0 4
+ 1.0411 12 9 ack 40 ------- 0 12.0 2.0 0 24
- 1.0411 12 9 ack 40 ------- 0 12.0 2.0 0 24
r 1.04122 9 13 tcp 40 ------- 0 3.0 13.0 0 5
+ 1.04122 13 9 ack 40 ------- 0 13.0 3.0 0 25
- 1.04122 13 9 ack 40 ------- 0 13.0 3.0 0 25
- 1.0415 7 8 cbr 500 ------- 1 5.0 15.0 5 15
r 1.0415 7 8 cbr 500 ------- 1 4.0 14.0 3 10
+ 1.0415 8 9 cbr 500 ------- 1 4.0 14.0 3 10
- 1.0415 8 9 cbr 500 ------- 1 4.0 14.0 3 10
r 1.043 8 9 cbr 500 ------- 1 4.0 14.0 1 6
+ 1.043 9 14 cbr 500 ------- 1 4.0 14.0 1 6
- 1.043 9 14 cbr 500 ------- 1 4.0 14.0 1 6
r 1.044 4 7 cbr 500 ------- 1 4.0 14.0 6 16
+ 1.044 7 8 cbr 500 ------- 1 4.0 14.0 6 16
r 1.044 5 7 cbr 500 ------- 1 5.0 15.0 6 17
+ 1.044 7 8 cbr 500 ------- 1 5.0 15.0 6 17
- 1.044 7 8 cbr 500 ------- 1 4.0 14.0 6 16
r 1.044 7 8 cbr 500 ------- 1 5.0 15.0 3 11
+ 1.044 8 9 cbr 500 ------- 1 5.0 15.0 3 11
- 1.044 8 9 cbr 500 ------- 1 5.0 15.0 3 11
+ 1.045 4 7 cbr 500 ------- 1 4.0 14.0 9 26
- 1.045 4 7 cbr 500 ------- 1 4.0 14.0 9 26
+ 1.045 5 7 cbr 500 ------- 1 5.0 15.0 9 27
- 1.045 5 7 cbr 500 ------- 1 5.0 15.0 9 27
r 1.0455 8 9 cbr 500 ------- 1 5.0 15.0 1 7
+ 1.0455 9 15 cbr 500 ------- 1 5.0 15.0 1 7
- 1.0455 9 15 cbr 500 ------- 1 5.0 15.0 1 7
- 1.0465 7 8 cbr 500 ------- 1 5.0 15.0 6 17
r 1.0465 7 8 cbr 500 ------- 1 4.0 14.0 4 12
+ 1.0465 8 9 cbr 500 ------- 1 4.0 14.0 4 12
- 1.0465 8 9 cbr 500 ------- 1 4.0 14.0 4 12
r 1.048 8 9 cbr 500 ------- 1 4.0 14.0 2 8
+ 1.048 9 14 cbr 500 ------- 1 4.0 14.0 2 8
- 1.048 9 14 cbr 500 ------- 1 4.0 14.0 2 8
r 1.049 4 7 cbr 500 ------- 1 4.0 14.0 7 18
+ 1.049 7 8 cbr 500 ------- 1 4.0 14.0 7 18
r 1.049 5 7 cbr 500 ------- 1 5.0 15.0 7 19
+ 1.049 7 8 cbr 500 ------- 1 5.0 15.0 7 19
- 1.049 7 8 cbr 500 ------- 1 4.0 14.0 7 18
r 1.049 7 8 cbr 500 ------- 1 5.0 15.0 4 13
+ 1.049 8 9 cbr 500 ------- 1 5.0 15.0 4 13
- 1.049 8 9 cbr 500 ------- 1 5.0 15.0 4 13
+ 1.05 4 7 cbr 500 ------- 1 4.0 14.0 10 28
- 1.05 4 7 cbr 500 ------- 1 4.0 14.0 10 28
+ 1.05 5 7 cbr 500 ------- 1 5.0 15.0 10 29
- 1.05 5 7 cbr 500 ------- 1 5.0 15.0 10 29
r 1.0505 8 9 cbr 500 ------- 1 5.0 15.0 2 9
+ 1.0505 9 15 cbr 500 ------- 1 5.0 15.0 2 9
- 1.0505 9 15 cbr 500 ------- 1 5.0 15.0 2 9
r 1.05118 10 9 ack 40 ------- 0 10.0 0.0 0 22
+ 1.05118 9 8 ack 40 ------- 0 10.0 0.0 0 22
- 1.05118 9 8 ack 40 ------- 0 10.0 0.0 0 22
r 1.0513 11 9 ack 40 ------- 0 11.0 1.0 0 23
+ 1.0513 9 8 ack 40 ------- 0 11.0 1.0 0 23
- 1.0513 9 8 ack 40 ------- 0 11.0 1.0 0 23
r 1.05142 12 9 ack 40 ------- 0 12.0 2.0 0 24
+ 1.05142 9 8 ack 40 ------- 0 12.0 2.0 0 24
- 1.05142 9 8 ack 40 ------- 0 12.0 2.0 0 24
- 1.0515 7 8 cbr 500 ------- 1 5.0 15.0 7 19
r 1.0515 7 8 cbr 500 ------- 1 4.0 14.0 5 14
+ 1.0515 8 9 cbr 500 ------- 1 4.0 14.0 5 14
- 1.0515 8 9 cbr 500 ------- 1 4.0 14.0 5 14
r 1.05154 13 9 ack 40 ------- 0 13.0 3.0 0 25
+ 1.05154 9 8 ack 40 ------- 0 13.0 3.0 0 25
- 1.05154 9 8 ack 40 ------- 0 13.0 3.0 0 25
r 1.052 9 14 cbr 500 ------- 1 4.0 14.0 0 0
r 1.053 8 9 cbr 500 ------- 1 4.0 14.0 3 10
+ 1.053 9 14 cbr 500 ------- 1 4.0 14.0 3 10
- 1.053 9 14 cbr 500 ------- 1 4.0 14.0 3 10
r 1.054 4 7 cbr 500 ------- 1 4.0 14.0 8 20
+ 1.054 7 8 cbr 500 ------- 1 4.0 14.0 8 20
r 1.054 5 7 cbr 500 ------- 1 5.0 15.0 8 21
+ 1.054 7 8 cbr 500 ------- 1 5.0 15.0 8 21
- 1.054 7 8 cbr 500 ------- 1 4.0 14.0 8 20
r 1.054 7 8 cbr 500 ------- 1 5.0 15.0 5 15
+ 1.054 8 9 cbr 500 ------- 1 5.0 15.0 5 15
- 1.054 8 9 cbr 500 ------- 1 5.0 15.0 5 15
r 1.0545 9 15 cbr 500 ------- 1 5.0 15.0 0 1
+ 1.055 4 7 cbr 500 ------- 1 4.0 14.0 11 30
- 1.055 4 7 cbr 500 ------- 1 4.0 14.0 11 30
+ 1.055 5 7 cbr 500 ------- 1 5.0 15.0 11 31
- 1.055 5 7 cbr 500 ------- 1 5.0 15.0 11 31
r 1.0555 8 9 cbr 500 ------- 1 5.0 15.0 3 11
+ 1.0555 9 15 cbr 500 ------- 1 5.0 15.0 3 11
- 1.0555 9 15 cbr 500 ------- 1 5.0 15.0 3 11
- 1.0565 7 8 cbr 500 ------- 1 5.0 15.0 8 21
r 1.0565 7 8 cbr 500 ------- 1 4.0 14.0 6 16
+ 1.0565 8 9 cbr 500 ------- 1 4.0 14.0 6 16
- 1.0565 8 9 cbr 500 ------- 1 4.0 14.0 6 16
r 1.057 9 14 cbr 500 ------- 1 4.0 14.0 1 6
r 1.058 8 9 cbr 500 ------- 1 4.0 14.0 4 12
+ 1.058 9 14 cbr 500 ------- 1 4.0 14.0 4 12
- 1.058 9 14 cbr 500 ------- 1 4.0 14.0 4 12
r 1.059 4 7 cbr 500 ------- 1 4.0 14.0 9 26
+ 1.059 7 8 cbr 500 ------- 1 4.0 14.0 9 26
r 1.059 5 7 cbr 500 ------- 1 5.0 15.0 9 27
+ 1.059 7 8 cbr 500 ------- 1 5.0 15.0 9 27
- 1.059 7 8 cbr 500 ------- 1 4.0 14.0 9 26
r 1.059 7 8 cbr 500 ------- 1 5.0 15.0 6 17
+ 1.059 8 9 cbr 500 ------- 1 5.0 15.0 6 17
- 1.059 8 9 cbr 500 ------- 1 5.0 15.0 6 17
r 1.0595 9 15 cbr 500 ------- 1 5.0 15.0 1 7
+ 1.06 4 7 cbr 500 ------- 1 4.0 14.0 12 32
- 1.06 4 7 cbr 500 ------- 1 4.0 14.0 12 32
+ 1.06 5 7 cbr 500 ------- 1 5.0 15.0 12 33
- 1.06 5 7 cbr 500 ------- 1 5.0 15.0 12 33
r 1.0605 8 9 cbr 500 ------- 1 5.0 15.0 4 13
+ 1.0605 9 15 cbr 500 ------- 1 5.0 15.0 4 13
- 1.0605 9 15 cbr 500 ------- 1 5.0 15.0 4 13
r 1.061244 9 8 ack 40 ------- 0 10.0 0.0 0 22
+ 1.061244 8 6 ack 40 ------- 0 10.0 0.0 0 22
- 1.061244 8 6 ack 40 ------- 0 10.0 0.0 0 22
r 1.061364 9 8 ack 40 ------- 0 11.0 1.0 0 23
+ 1.061364 8 6 ack 40 ------- 0 11.0 1.0 0 23
- 1.061364 8 6 ack 40 ------- 0 11.0 1.0 0 23
r 1.061484 9 8 ack 40 ------- 0 12.0 2.0 0 24
+ 1.061484 8 6 ack 40 ------- 0 12.0 2.0 0 24
- 1.061484 8 6 ack 40 ------- 0 12.0 2.0 0 24
- 1.0615 7 8 cbr 500 ------- 1 5.0 15.0 9 27
r 1.0615 7 8 cbr 500 ------- 1 4.0 14.0 7 18
+ 1.0615 8 9 cbr 500 ------- 1 4.0 14.0 7 18
- 1.0615 8 9 cbr 500 ------- 1 4.0 14.0 7 18
r 1.061604 9 8 ack 40 ------- 0 13.0 3.0 0 25
+ 1.061604 8 6 ack 40 ------- 0 13.0 3.0 0 25
- 1.061604 8 6 ack 40 ------- 0 13.0 3.0 0 25
r 1.062 9 14 cbr 500 ------- 1 4.0 14.0 2 8
r 1.063 8 9 cbr 500 ------- 1 4.0 14.0 5 14
+ 1.063 9 14 cbr 500 ------- 1 4.0 14.0 5 14
- 1.063 9 14 cbr 500 ------- 1 4.0 14.0 5 14
r 1.064 4 7 cbr 500 ------- 1 4.0 14.0 10 28
+ 1.064 7 8 cbr 500 ------- 1 4.0 14.0 10 28
r 1.064 5 7 cbr 500 ------- 1 5.0 15.0 10 29
+ 1.064 7 8 cbr 500 ------- 1 5.0 15.0 10 29
- 1.064 7 8 cbr 500 ------- 1 4.0 14.0 10 28
r 1.064 7 8 cbr 500 ------- 1 5.0 15.0 7 19
+ 1.064 8 9 cbr 500 ------- 1 5.0 15.0 7 19
- 1.064 8 9 cbr 500 ------- 1 5.0 15.0 7 19
r 1.0645 9 15 cbr 500 ------- 1 5.0 15.0 2 9
+ 1.065 4 7 cbr 500 ------- 1 4.0 14.0 13 34
- 1.065 4 7 cbr 500 ------- 1 4.0 14.0 13 34
+ 1.065 5 7 cbr 500 ------- 1 5.0 15.0 13 35
- 1.065 5 7 cbr 500 ------- 1 5.0 15.0 13 35
r 1.0655 8 9 cbr 500 ------- 1 5.0 15.0 5 15
+ 1.0655 9 15 cbr 500 ------- 1 5.0 15.0 5 15
- 1.0655 9 15 cbr 500 ------- 1 5.0 15.0 5 15
- 1.0665 7 8 cbr 500 ------- 1 5.0 15.0 10 29
r 1.0665 7 8 cbr 500 ------- 1 4.0 14.0 8 20
+ 1.0665 8 9 cbr 500 ------- 1 4.0 14.0 8 20
- 1.0665 8 9 cbr 500 ------- 1 4.0 14.0 8 20
r 1.067 9 14 cbr 500 ------- 1 4.0 14.0 3 10
r 1.068 8 9 cbr 500 ------- 1 4.0 14.0 6 16
+ 1.068 9 14 cbr 500 ------- 1 4.0 14.0 6 16
- 1.068 9 14 cbr 500 ------- 1 4.0 14.0 6 16
r 1.069 4 7 cbr 500 ------- 1 4.0 14.0 11 30
+ 1.069 7 8 cbr 500 ------- 1 4.0 14.0 11 30
r 1.069 5 7 cbr 500 ------- 1 5.0 15.0 11 31
+ 1.069 7 8 cbr 500 ------- 1 5.0 15.0 11 31
- 1.069 7 8 cbr 500 ------- 1 4.0 14.0 11 30
r 1.069 7 8 cbr 500 ------- 1 5.0 15.0 8 21
+ 1.069 8 9 cbr 500 ------- 1 5.0 15.0 8 21
- 1.069 8 9 cbr 500 ------- 1 5.0 15.0 8 21
r 1.0695 9 15 cbr 500 ------- 1 5.0 15.0 3 11
+ 1.07 4 7 cbr 500 ------- 1 4.0 14.0 14 36
- 1.07 4 7 cbr 500 ------- 1 4.0 14.0 14 36
+ 1.07 5 7 cbr 500 ------- 1 5.0 15.0 14 37
- 1.07 5 7 cbr 500 ------- 1 5.0 15.0 14 37
r 1.0705 8 9 cbr 500 ------- 1 5.0 15.0 6 17
+ 1.0705 9 15 cbr 500 ------- 1 5.0 15.0 6 17
- 1.0705 9 15 cbr 500 ------- 1 5.0 15.0 6 17
r 1.071344 8 6 ack 40 ------- 0 10.0 0.0 0 22
+ 1.071344 6 0 ack 40 ------- 0 10.0 0.0 0 22
- 1.071344 6 0 ack 40 ------- 0 10.0 0.0 0 22
r 1.071464 8 6 ack 40 ------- 0 11.0 1.0 0 23
+ 1.071464 6 1 ack 40 ------- 0 11.0 1.0 0 23
- 1.071464 6 1 ack 40 ------- 0 11.0 1.0 0 23
- 1.0715 7 8 cbr 500 ------- 1 5.0 15.0 11 31
r 1.0715 7 8 cbr 500 ------- 1 4.0 14.0 9 26
+ 1.0715 8 9 cbr 500 ------- 1 4.0 14.0 9 26
- 1.0715 8 9 cbr 500 ------- 1 4.0 14.0 9 26
r 1.071584 8 6 ack 40 ------- 0 12.0 2.0 0 24
+ 1.071584 6 2 ack 40 ------- 0 12.0 2.0 0 24
- 1.071584 6 2 ack 40 ------- 0 12.0 2.0 0 24
r 1.071704 8 6 ack 40 ------- 0 13.0 3.0 0 25
+ 1.071704 6 3 ack 40 ------- 0 13.0 3.0 0 25
- 1.071704 6 3 ack 40 ------- 0 13.0 3.0 0 25
r 1.072 9 14 cbr 500 ------- 1 4.0 14.0 4 12
r 1.073 8 9 cbr 500 ------- 1 4.0 14.0 7 18
+ 1.073 9 14 cbr 500 ------- 1 4.0 14.0 7 18
- 1.073 9 14 cbr 500 ------- 1 4.0 14.0 7 18
r 1.074 4 7 cbr 500 ------- 1 4.0 14.0 12 32
+ 1.074 7 8 cbr 500 ------- 1 4.0 14.0 12 32
r 1.074 5 7 cbr 500 ------- 1 5.0 15.0 12 33
+ 1.074 7 8 cbr 500 ------- 1 5.0 15.0 12 33
- 1.074 7 8 cbr 500 ------- 1 4.0 14.0 12 32
r 1.074 7 8 cbr 500 ------- 1 5.0 15.0 9 27
+ 1.074 8 9 cbr 500 ------- 1 5.0 15.0 9 27
- 1.074 8 9 cbr 500 ------- 1 5.0 15.0 9 27
r 1.0745 9 15 cbr 500 ------- 1 5.0 15.0 4 13
+ 1.075 4 7 cbr 500 ------- 1 4.0 14.0 15 38
- 1.075 4 7 cbr 500 ------- 1 4.0 14.0 15 38
+ 1.075 5 7 cbr 500 ------- 1 5.0 15.0 15 39
- 1.075 5 7 cbr 500 ------- 1 5.0 15.0 15 39
r 1.0755 8 9 cbr 500 ------- 1 5.0 15.0 7 19
+ 1.0755 9 15 cbr 500 ------- 1 5.0 15.0 7 19
- 1.0755 9 15 cbr 500 ------- 1 5.0 15.0 7 19
- 1.0765 7 8 cbr 500 ------- 1 5.0 15.0 12 33
r 1.0765 7 8 cbr 500 ------- 1 4.0 14.0 10 28
+ 1.0765 8 9 cbr 500 ------- 1 4.0 14.0 10 28
- 1.0765 8 9 cbr 500 ------- 1 4.0 14.0 10 28
r 1.077 9 14 cbr 500 ------- 1 4.0 14.0 5 14
r 1.078 8 9 cbr 500 ------- 1 4.0 14.0 8 20
+ 1.078 9 14 cbr 500 ------- 1 4.0 14.0 8 20
- 1.078 9 14 cbr 500 ------- 1 4.0 14.0 8 20
r 1.079 4 7 cbr 500 ------- 1 4.0 14.0 13 34
+ 1.079 7 8 cbr 500 ------- 1 4.0 14.0 13 34
r 1.079 5 7 cbr 500 ------- 1 5.0 15.0 13 35
+ 1.079 7 8 cbr 500 ------- 1 5.0 15.0 13 35
- 1.079 7 8 cbr 500 ------- 1 4.0 14.0 13 34
r 1.079 7 8 cbr 500 ------- 1 5.0 15.0 10 29
+ 1.079 8 9 cbr 500 ------- 1 5.0 15.0 10 29
- 1.079 8 9 cbr 500 ------- 1 5.0 15.0 10 29
r 1.0795 9 15 cbr 500 ------- 1 5.0 15.0 5 15
+ 1.08 4 7 cbr 500 ------- 1 4.0 14.0 16 40
- 1.08 4 7 cbr 500 ------- 1 4.0 14.0 16 40
+ 1.08 5 7 cbr 500 ------- 1 5.0 15.0 16 41
- 1.08 5 7 cbr 500 ------- 1 5.0 15.0 16 41
r 1.0805 8 9 cbr 500 ------- 1 5.0 15.0 8 21
+ 1.0805 9 15 cbr 500 ------- 1 5.0 15.0 8 21
- 1.0805 9 15 cbr 500 ------- 1 5.0 15.0 8 21
- 1.0815 7 8 cbr 500 ------- 1 5.0 15.0 13 35
r 1.0815 7 8 cbr 500 ------- 1 4.0 14.0 11 30
+ 1.0815 8 9 cbr 500 ------- 1 4.0 14.0 11 30
- 1.0815 8 9 cbr 500 ------- 1 4.0 14.0 11 30
r 1.081664 6 0 ack 40 ------- 0 10.0 0.0 0 22
+ 1.081664 0 6 tcp 540 ------- 0 0.0 10.0 1 42
- 1.081664 0 6 tcp 540 ------- 0 0.0 10.0 1 42
+ 1.081664 0 6 tcp 540 ------- 0 0.0 10.0 2 43
r 1.081784 6 1 ack 40 ------- 0 11.0 1.0 0 23
+ 1.081784 1 6 tcp 540 ------- 0 1.0 11.0 1 44
- 1.081784 1 6 tcp 540 ------- 0 1.0 11.0 1 44
+ 1.081784 1 6 tcp 540 ------- 0 1.0 11.0 2 45
r 1.081904 6 2 ack 40 ------- 0 12.0 2.0 0 24
+ 1.081904 2 6 tcp 540 ------- 0 2.0 12.0 1 46
- 1.081904 2 6 tcp 540 ------- 0 2.0 12.0 1 46
+ 1.081904 2 6 tcp 540 ------- 0 2.0 12.0 2 47
r 1.082 9 14 cbr 500 ------- 1 4.0 14.0 6 16
r 1.082024 6 3 ack 40 ------- 0 13.0 3.0 0 25
+ 1.082024 3 6 tcp 540 ------- 0 3.0 13.0 1 48
- 1.082024 3 6 tcp 540 ------- 0 3.0 13.0 1 48
+ 1.082024 3 6 tcp 540 ------- 0 3.0 13.0 2 49
r 1.083 8 9 cbr 500 ------- 1 4.0 14.0 9 26
+ 1.083 9 14 cbr 500 ------- 1 4.0 14.0 9 26
- 1.083 9 14 cbr 500 ------- 1 4.0 14.0 9 26
r 1.084 4 7 cbr 500 ------- 1 4.0 14.0 14 36
+ 1.084 7 8 cbr 500 ------- 1 4.0 14.0 14 36
r 1.084 5 7 cbr 500 ------- 1 5.0 15.0 14 37
+ 1.084 7 8 cbr 500 ------- 1 5.0 15.0 14 37
- 1.084 7 8 cbr 500 ------- 1 4.0 14.0 14 36
r 1.084 7 8 cbr 500 ------- 1 5.0 15.0 11 31
+ 1.084 8 9 cbr 500 ------- 1 5.0 15.0 11 31
- 1.084 8 9 cbr 500 ------- 1 5.0 15.0 11 31
r 1.0845 9 15 cbr 500 ------- 1 5.0 15.0 6 17
+ 1.085 4 7 cbr 500 ------- 1 4.0 14.0 17 50
- 1.085 4 7 cbr 500 ------- 1 4.0 14.0 17 50
+ 1.085 5 7 cbr 500 ------- 1 5.0 15.0 17 51
- 1.085 5 7 cbr 500 ------- 1 5.0 15.0 17 51
r 1.0855 8 9 cbr 500 ------- 1 5.0 15.0 9 27
+ 1.0855 9 15 cbr 500 ------- 1 5.0 15.0 9 27
- 1.0855 9 15 cbr 500 ------- 1 5.0 15.0 9 27
- 1.085984 0 6 tcp 540 ------- 0 0.0 10.0 2 43
- 1.086104 1 6 tcp 540 ------- 0 1.0 11.0 2 45
- 1.086224 2 6 tcp 540 ------- 0 2.0 12.0 2 47
- 1.086344 3 6 tcp 540 ------- 0 3.0 13.0 2 49
- 1.0865 7 8 cbr 500 ------- 1 5.0 15.0 14 37
r 1.0865 7 8 cbr 500 ------- 1 4.0 14.0 12 32
+ 1.0865 8 9 cbr 500 ------- 1 4.0 14.0 12 32
- 1.0865 8 9 cbr 500 ------- 1 4.0 14.0 12 32
r 1.087 9 14 cbr 500 ------- 1 4.0 14.0 7 18
r 1.088 8 9 cbr 500 ------- 1 4.0 14.0 10 28
+ 1.088 9 14 cbr 500 ------- 1 4.0 14.0 10 28
- 1.088 9 14 cbr 500 ------- 1 4.0 14.0 10 28
r 1.089 4 7 cbr 500 ------- 1 4.0 14.0 15 38
+ 1.089 7 8 cbr 500 ------- 1 4.0 14.0 15 38
r 1.089 5 7 cbr 500 ------- 1 5.0 15.0 15 39
+ 1.089 7 8 cbr 500 ------- 1 5.0 15.0 15 39
- 1.089 7 8 cbr 500 ------- 1 4.0 14.0 15 38
r 1.089 7 8 cbr 500 ------- 1 5.0 15.0 12 33
+ 1.089 8 9 cbr 500 ------- 1 5.0 15.0 12 33
- 1.089 8 9 cbr 500 ------- 1 5.0 15.0 12 33
r 1.0895 9 15 cbr 500 ------- 1 5.0 15.0 7 19
+ 1.09 4 7 cbr 500 ------- 1 4.0 14.0 18 52
- 1.09 4 7 cbr 500 ------- 1 4.0 14.0 18 52
+ 1.09 5 7 cbr 500 ------- 1 5.0 15.0 18 53
- 1.09 5 7 cbr 500 ------- 1 5.0 15.0 18 53
r 1.0905 8 9 cbr 500 ------- 1 5.0 15.0 10 29
+ 1.0905 9 15 cbr 500 ------- 1 5.0 15.0 10 29
- 1.0905 9 15 cbr 500 ------- 1 5.0 15.0 10 29
- 1.0915 7 8 cbr 500 ------- 1 5.0 15.0 15 39
r 1.0915 7 8 cbr 500 ------- 1 4.0 14.0 13 34
+ 1.0915 8 9 cbr 500 ------- 1 4.0 14.0 13 34
- 1.0915 8 9 cbr 500 ------- 1 4.0 14.0 13 34
r 1.092 9 14 cbr 500 ------- 1 4.0 14.0 8 20
r 1.093 8 9 cbr 500 ------- 1 4.0 14.0 11 30
+ 1.093 9 14 cbr 500 ------- 1 4.0 14.0 11 30
- 1.093 9 14 cbr 500 ------- 1 4.0 14.0 11 30
r 1.094 4 7 cbr 500 ------- 1 4.0 14.0 16 40
+ 1.094 7 8 cbr 500 ------- 1 4.0 14.0 16 40
r 1.094 5 7 cbr 500 ------- 1 5.0 15.0 16 41
+ 1.094 7 8 cbr 500 ------- 1 5.0 15.0 16 41
- 1.094 7 8 cbr 500 ------- 1 4.0 14.0 16 40
r 1.094 7 8 cbr 500 ------- 1 5.0 15.0 13 35
+ 1.094 8 9 cbr 500 ------- 1 5.0 15.0 13 35
- 1.094 8 9 cbr 500 ------- 1 5.0 15.0 13 35
r 1.0945 9 15 cbr 500 ------- 1 5.0 15.0 8 21
+ 1.095 4 7 cbr 500 ------- 1 4.0 14.0 19 54
- 1.095 4 7 cbr 500 ------- 1 4.0 14.0 19 54
+ 1.095 5 7 cbr 500 ------- 1 5.0 15.0 19 55
- 1.095 5 7 cbr 500 ------- 1 5.0 15.0 19 55
r 1.0955 8 9 cbr 500 ------- 1 5.0 15.0 11 31
+ 1.0955 9 15 cbr 500 ------- 1 5.0 15.0 11 31
- 1.0955 9 15 cbr 500 ------- 1 5.0 15.0 11 31
r 1.095984 0 6 tcp 540 ------- 0 0.0 10.0 1 42
+ 1.095984 6 8 tcp 540 ------- 0 0.0 10.0 1 42
- 1.095984 6 8 tcp 540 ------- 0 0.0 10.0 1 42
r 1.096104 1 6 tcp 540 ------- 0 1.0 11.0 1 44
+ 1.096104 6 8 tcp 540 ------- 0 1.0 11.0 1 44
r 1.096224 2 6 tcp 540 ------- 0 2.0 12.0 1 46
+ 1.096224 6 8 tcp 540 ------- 0 2.0 12.0 1 46
r 1.096344 3 6 tcp 540 ------- 0 3.0 13.0 1 48
+ 1.096344 6 8 tcp 540 ------- 0 3.0 13.0 1 48
- 1.0965 7 8 cbr 500 ------- 1 5.0 15.0 16 41
r 1.0965 7 8 cbr 500 ------- 1 4.0 14.0 14 36
+ 1.0965 8 9 cbr 500 ------- 1 4.0 14.0 14 36
- 1.0965 8 9 cbr 500 ------- 1 4.0 14.0 14 36
r 1.097 9 14 cbr 500 ------- 1 4.0 14.0 9 26
- 1.097334 6 8 tcp 540 ------- 0 1.0 11.0 1 44
r 1.098 8 9 cbr 500 ------- 1 4.0 14.0 12 32
+ 1.098 9 14 cbr 500 ------- 1 4.0 14.0 12 32
- 1.098 9 14 cbr 500 ------- 1 4.0 14.0 12 32
- 1.098684 6 8 tcp 540 ------- 0 2.0 12.0 1 46
r 1.099 4 7 cbr 500 ------- 1 4.0 14.0 17 50
+ 1.099 7 8 cbr 500 ------- 1 4.0 14.0 17 50
r 1.099 5 7 cbr 500 ------- 1 5.0 15.0 17 51
+ 1.099 7 8 cbr 500 ------- 1 5.0 15.0 17 51
- 1.099 7 8 cbr 500 ------- 1 4.0 14.0 17 50
r 1.099 7 8 cbr 500 ------- 1 5.0 15.0 14 37
+ 1.099 8 9 cbr 500 ------- 1 5.0 15.0 14 37
- 1.099 8 9 cbr 500 ------- 1 5.0 15.0 14 37
r 1.0995 9 15 cbr 500 ------- 1 5.0 15.0 9 27
+ 1.1 4 7 cbr 500 ------- 1 4.0 14.0 20 56
- 1.1 4 7 cbr 500 ------- 1 4.0 14.0 20 56
+ 1.1 5 7 cbr 500 ------- 1 5.0 15.0 20 57
- 1.1 5 7 cbr 500 ------- 1 5.0 15.0 20 57
- 1.100034 6 8 tcp 540 ------- 0 3.0 13.0 1 48
r 1.100304 0 6 tcp 540 ------- 0 0.0 10.0 2 43
+ 1.100304 6 8 tcp 540 ------- 0 0.0 10.0 2 43
r 1.100424 1 6 tcp 540 ------- 0 1.0 11.0 2 45
+ 1.100424 6 8 tcp 540 ------- 0 1.0 11.0 2 45
r 1.1005 8 9 cbr 500 ------- 1 5.0 15.0 12 33
+ 1.1005 9 15 cbr 500 ------- 1 5.0 15.0 12 33
- 1.1005 9 15 cbr 500 ------- 1 5.0 15.0 12 33
r 1.100544 2 6 tcp 540 ------- 0 2.0 12.0 2 47
+ 1.100544 6 8 tcp 540 ------- 0 2.0 12.0 2 47
r 1.100664 3 6 tcp 540 ------- 0 3.0 13.0 2 49
+ 1.100664 6 8 tcp 540 ------- 0 3.0 13.0 2 49
- 1.101384 6 8 tcp 540 ------- 0 0.0 10.0 2 43
- 1.1015 7 8 cbr 500 ------- 1 5.0 15.0 17 51
r 1.1015 7 8 cbr 500 ------- 1 4.0 14.0 15 38
+ 1.1015 8 9 cbr 500 ------- 1 4.0 14.0 15 38
- 1.1015 8 9 cbr 500 ------- 1 4.0 14.0 15 38
r 1.102 9 14 cbr 500 ------- 1 4.0 14.0 10 28
- 1.102734 6 8 tcp 540 ------- 0 1.0 11.0 2 45
r 1.103 8 9 cbr 500 ------- 1 4.0 14.0 13 34
+ 1.103 9 14 cbr 500 ------- 1 4.0 14.0 13 34
- 1.103 9 14 cbr 500 ------- 1 4.0 14.0 13 34
r 1.104 4 7 cbr 500 ------- 1 4.0 14.0 18 52
+ 1.104 7 8 cbr 500 ------- 1 4.0 14.0 18 52
r 1.104 5 7 cbr 500 ------- 1 5.0 15.0 18 53
+ 1.104 7 8 cbr 500 ------- 1 5.0 15.0 18 53
- 1.104 7 8 cbr 500 ------- 1 4.0 14.0 18 52
r 1.104 7 8 cbr 500 ------- 1 5.0 15.0 15 39
+ 1.104 8 9 cbr 500 ------- 1 5.0 15.0 15 39
- 1.104 8 9 cbr 500 ------- 1 5.0 15.0 15 39
- 1.104084 6 8 tcp 540 ------- 0 2.0 12.0 2 47
r 1.1045 9 15 cbr 500 ------- 1 5.0 15.0 10 29
+ 1.105 4 7 cbr 500 ------- 1 4.0 14.0 21 58
- 1.105 4 7 cbr 500 ------- 1 4.0 14.0 21 58
+ 1.105 5 7 cbr 500 ------- 1 5.0 15.0 21 59
- 1.105 5 7 cbr 500 ------- 1 5.0 15.0 21 59
- 1.105434 6 8 tcp 540 ------- 0 3.0 13.0 2 49
r 1.1055 8 9 cbr 500 ------- 1 5.0 15.0 13 35
+ 1.1055 9 15 cbr 500 ------- 1 5.0 15.0 13 35
- 1.1055 9 15 cbr 500 ------- 1 5.0 15.0 13 35
- 1.1065 7 8 cbr 500 ------- 1 5.0 15.0 18 53
r 1.1065 7 8 cbr 500 ------- 1 4.0 14.0 16 40
+ 1.1065 8 9 cbr 500 ------- 1 4.0 14.0 16 40
- 1.1065 8 9 cbr 500 ------- 1 4.0 14.0 16 40
r 1.107 9 14 cbr 500 ------- 1 4.0 14.0 11 30
r 1.107334 6 8 tcp 540 ------- 0 0.0 10.0 1 42
+ 1.107334 8 9 tcp 540 ------- 0 0.0 10.0 1 42
r 1.108 8 9 cbr 500 ------- 1 4.0 14.0 14 36
+ 1.108 9 14 cbr 500 ------- 1 4.0 14.0 14 36
- 1.108 9 14 cbr 500 ------- 1 4.0 14.0 14 36
- 1.108 8 9 tcp 540 ------- 0 0.0 10.0 1 42
r 1.108684 6 8 tcp 540 ------- 0 1.0 11.0 1 44
+ 1.108684 8 9 tcp 540 ------- 0 1.0 11.0 1 44
r 1.109 4 7 cbr 500 ------- 1 4.0 14.0 19 54
+ 1.109 7 8 cbr 500 ------- 1 4.0 14.0 19 54
r 1.109 5 7 cbr 500 ------- 1 5.0 15.0 19 55
+ 1.109 7 8 cbr 500 ------- 1 5.0 15.0 19 55
- 1.109 7 8 cbr 500 ------- 1 4.0 14.0 19 54
r 1.109 7 8 cbr 500 ------- 1 5.0 15.0 16 41
+ 1.109 8 9 cbr 500 ------- 1 5.0 15.0 16 41
r 1.1095 9 15 cbr 500 ------- 1 5.0 15.0 11 31
- 1.10962 8 9 tcp 540 ------- 0 1.0 11.0 1 44
+ 1.11 4 7 cbr 500 ------- 1 4.0 14.0 22 60
- 1.11 4 7 cbr 500 ------- 1 4.0 14.0 22 60
+ 1.11 5 7 cbr 500 ------- 1 5.0 15.0 22 61
- 1.11 5 7 cbr 500 ------- 1 5.0 15.0 22 61
r 1.110034 6 8 tcp 540 ------- 0 2.0 12.0 1 46
+ 1.110034 8 9 tcp 540 ------- 0 2.0 12.0 1 46
r 1.1105 8 9 cbr 500 ------- 1 5.0 15.0 14 37
+ 1.1105 9 15 cbr 500 ------- 1 5.0 15.0 14 37
- 1.1105 9 15 cbr 500 ------- 1 5.0 15.0 14 37
- 1.111239 8 9 tcp 540 ------- 0 2.0 12.0 1 46
r 1.111384 6 8 tcp 540 ------- 0 3.0 13.0 1 48
+ 1.111384 8 9 tcp 540 ------- 0 3.0 13.0 1 48
- 1.1115 7 8 cbr 500 ------- 1 5.0 15.0 19 55
r 1.1115 7 8 cbr 500 ------- 1 4.0 14.0 17 50
+ 1.1115 8 9 cbr 500 ------- 1 4.0 14.0 17 50
r 1.112 9 14 cbr 500 ------- 1 4.0 14.0 12 32
r 1.112734 6 8 tcp 540 ------- 0 0.0 10.0 2 43
+ 1.112734 8 9 tcp 540 ------- 0 0.0 10.0 2 43
- 1.112859 8 9 tcp 540 ------- 0 3.0 13.0 1 48
r 1.113 8 9 cbr 500 ------- 1 4.0 14.0 15 38
+ 1.113 9 14 cbr 500 ------- 1 4.0 14.0 15 38
- 1.113 9 14 cbr 500 ------- 1 4.0 14.0 15 38
r 1.114 4 7 cbr 500 ------- 1 4.0 14.0 20 56
+ 1.114 7 8 cbr 500 ------- 1 4.0 14.0 20 56
r 1.114 5 7 cbr 500 ------- 1 5.0 15.0 20 57
+ 1.114 7 8 cbr 500 ------- 1 5.0 15.0 20 57
- 1.114 7 8 cbr 500 ------- 1 4.0 14.0 20 56
r 1.114 7 8 cbr 500 ------- 1 5.0 15.0 17 51
+ 1.114 8 9 cbr 500 ------- 1 5.0 15.0 17 51
r 1.114084 6 8 tcp 540 ------- 0 1.0 11.0 2 45
+ 1.114084 8 9 tcp 540 ------- 0 1.0 11.0 2 45
- 1.114479 8 9 tcp 540 ------- 0 0.0 10.0 2 43
r 1.1145 9 15 cbr 500 ------- 1 5.0 15.0 12 33
+ 1.115 4 7 cbr 500 ------- 1 4.0 14.0 23 62
- 1.115 4 7 cbr 500 ------- 1 4.0 14.0 23 62
+ 1.115 5 7 cbr 500 ------- 1 5.0 15.0 23 63
- 1.115 5 7 cbr 500 ------- 1 5.0 15.0 23 63
r 1.115434 6 8 tcp 540 ------- 0 2.0 12.0 2 47
+ 1.115434 8 9 tcp 540 ------- 0 2.0 12.0 2 47
r 1.1155 8 9 cbr 500 ------- 1 5.0 15.0 15 39
+ 1.1155 9 15 cbr 500 ------- 1 5.0 15.0 15 39
- 1.1155 9 15 cbr 500 ------- 1 5.0 15.0 15 39
- 1.116099 8 9 tcp 540 ------- 0 1.0 11.0 2 45
- 1.1165 7 8 cbr 500 ------- 1 5.0 15.0 20 57
r 1.1165 7 8 cbr 500 ------- 1 4.0 14.0 18 52
+ 1.1165 8 9 cbr 500 ------- 1 4.0 14.0 18 52
r 1.116784 6 8 tcp 540 ------- 0 3.0 13.0 2 49
+ 1.116784 8 9 tcp 540 ------- 0 3.0 13.0 2 49
r 1.117 9 14 cbr 500 ------- 1 4.0 14.0 13 34
- 1.117719 8 9 tcp 540 ------- 0 2.0 12.0 2 47
r 1.118 8 9 cbr 500 ------- 1 4.0 14.0 16 40
+ 1.118 9 14 cbr 500 ------- 1 4.0 14.0 16 40
- 1.118 9 14 cbr 500 ------- 1 4.0 14.0 16 40
r 1.119 4 7 cbr 500 ------- 1 4.0 14.0 21 58
+ 1.119 7 8 cbr 500 ------- 1 4.0 14.0 21 58
r 1.119 5 7 cbr 500 ------- 1 5.0 15.0 21 59
+ 1.119 7 8 cbr 500 ------- 1 5.0 15.0 21 59
- 1.119 7 8 cbr 500 ------- 1 4.0 14.0 21 58
r 1.119 7 8 cbr 500 ------- 1 5.0 15.0 18 53
+ 1.119 8 9 cbr 500 ------- 1 5.0 15.0 18 53
- 1.119338 8 9 tcp 540 ------- 0 3.0 13.0 2 49
r 1.1195 9 15 cbr 500 ------- 1 5.0 15.0 13 35
r 1.11962 8 9 tcp 540 ------- 0 0.0 10.0 1 42
+ 1.11962 9 10 tcp 540 ------- 0 0.0 10.0 1 42
- 1.11962 9 10 tcp 540 ------- 0 0.0 10.0 1 42
+ 1.12 4 7 cbr 500 ------- 1 4.0 14.0 24 64
- 1.12 4 7 cbr 500 ------- 1 4.0 14.0 24 64
+ 1.12 5 7 cbr 500 ------- 1 5.0 15.0 24 65
- 1.12 5 7 cbr 500 ------- 1 5.0 15.0 24 65
- 1.120958 8 9 cbr 500 ------- 1 5.0 15.0 16 41
r 1.121239 8 9 tcp 540 ------- 0 1.0 11.0 1 44
+ 1.121239 9 11 tcp 540 ------- 0 1.0 11.0 1 44
- 1.121239 9 11 tcp 540 ------- 0 1.0 11.0 1 44
- 1.1215 7 8 cbr 500 ------- 1 5.0 15.0 21 59
r 1.1215 7 8 cbr 500 ------- 1 4.0 14.0 19 54
+ 1.1215 8 9 cbr 500 ------- 1 4.0 14.0 19 54
r 1.122 9 14 cbr 500 ------- 1 4.0 14.0 14 36
- 1.122458 8 9 cbr 500 ------- 1 4.0 14.0 17 50
r 1.122859 8 9 tcp 540 ------- 0 2.0 12.0 1 46
+ 1.122859 9 12 tcp 540 ------- 0 2.0 12.0 1 46
- 1.122859 9 12 tcp 540 ------- 0 2.0 12.0 1 46
- 1.123958 8 9 cbr 500 ------- 1 5.0 15.0 17 51
r 1.124 4 7 cbr 500 ------- 1 4.0 14.0 22 60
+ 1.124 7 8 cbr 500 ------- 1 4.0 14.0 22 60
r 1.124 5 7 cbr 500 ------- 1 5.0 15.0 22 61
+ 1.124 7 8 cbr 500 ------- 1 5.0 15.0 22 61
- 1.124 7 8 cbr 500 ------- 1 4.0 14.0 22 60
r 1.124 7 8 cbr 500 ------- 1 5.0 15.0 19 55
+ 1.124 8 9 cbr 500 ------- 1 5.0 15.0 19 55
r 1.124479 8 9 tcp 540 ------- 0 3.0 13.0 1 48
+ 1.124479 9 13 tcp 540 ------- 0 3.0 13.0 1 48
- 1.124479 9 13 tcp 540 ------- 0 3.0 13.0 1 48
r 1.1245 9 15 cbr 500 ------- 1 5.0 15.0 14 37
+ 1.125 4 7 cbr 500 ------- 1 4.0 14.0 25 66
- 1.125 4 7 cbr 500 ------- 1 4.0 14.0 25 66
+ 1.125 5 7 cbr 500 ------- 1 5.0 15.0 25 67
- 1.125 5 7 cbr 500 ------- 1 5.0 15.0 25 67
- 1.125458 8 9 cbr 500 ------- 1 4.0 14.0 18 52
r 1.126099 8 9 tcp 540 ------- 0 0.0 10.0 2 43
+ 1.126099 9 10 tcp 540 ------- 0 0.0 10.0 2 43
- 1.126099 9 10 tcp 540 ------- 0 0.0 10.0 2 43
- 1.1265 7 8 cbr 500 ------- 1 5.0 15.0 22 61
r 1.1265 7 8 cbr 500 ------- 1 4.0 14.0 20 56
+ 1.1265 8 9 cbr 500 ------- 1 4.0 14.0 20 56
- 1.126957 8 9 cbr 500 ------- 1 5.0 15.0 18 53
r 1.127 9 14 cbr 500 ------- 1 4.0 14.0 15 38