+ 1 4 7 cbr 500 ------- 1 4.0 14.0 0 0
- 1 4 7 cbr 500 ------- 1 4.0 14.0 0 0
+ 1 5 7 cbr 500 ------- 1 5.0 15.0 0 1
- 1 5 7 cbr 500 ------- 1 5.0 15.0 0 1
+ 1 0 6 tcp 40 ------- 0 0.0 10.0 0 2
- 1 0 6 tcp 40 ------- 0 0.0 10.0 0 2
+ 1 1 6 tcp 40 ------- 0 1.0 11.0 0 3
- 1 1 6 tcp 40 ------- 0 1.0 11.0 0 3
+ 1 2 6 tcp 40 ------- 0 2.0 12.0 0 4
- 1 2 6 tcp 40 ------- 0 2.0 12.0 0 4
+ 1 3 6 tcp 40 ------- 0 3.0 13.0 0 5
- 1 3 6 tcp 40 ------- 0 3.0 13.0 0 5
+ 1.005 4 7 cbr 500 ------- 1 4.0 14.0 1 6
- 1.005 4 7 cbr 500 ------- 1 4.0 14.0 1 6
+ 1.005 5 7 cbr 500 ------- 1 5.0 15.0 1 7
- 1.005 5 7 cbr 500 ------- 1 5.0 15.0 1 7
+ 1.01 4 7 cbr 500 ------- 1 4.0 14.0 2 8
- 1.01 4 7 cbr 500 ------- 1 4.0 14.0 2 8
+ 1.01 5 7 cbr 500 ------- 1 5.0 15.0 2 9
- 1.01 5 7 cbr 500 ------- 1 5.0 15.0 2 9
r 1.01032 0 6 tcp 40 ------- 0 0.0 10.0 0 2
+ 1.01032 6 8 tcp 40 ------- 0 0.0 10.0 0 2
- 1.01032 6 8 tcp 40 ------- 0 0.0 10.0 0 2
r 1.01032 1 6 tcp 40 ------- 0 1.0 11.0 0 3
+ 1.01032 6 8 tcp 40 ------- 0 1.0 11.0 0 3
r 1.01032 2 6 tcp 40 ------- 0 2.0 12.0 0 4
+ 1.01032 6 8 tcp 40 ------- 0 2.0 12.0 0 4
r 1.01032 3 6 tcp 40 ------- 0 3.0 13.0 0 5
+ 1.01032 6 8 tcp 40 ------- 0 3.0 13.0 0 5
- 1.01042 6 8 tcp 40 ------- 0 1.0 11.0 0 3
- 1.01052 6 8 tcp 40 ------- 0 2.0 12.0 0 4
- 1.01062 6 8 tcp 40 ------- 0 3.0 13.0 0 5
r 1.014 4 7 cbr 500 ------- 1 4.0 14.0 0 0
+ 1.014 7 8 cbr 500 ------- 1 4.0 14.0 0 0
- 1.014 7 8 cbr 500 ------- 1 4.0 14.0 0 0
r 1.014 5 7 cbr 500 ------- 1 5.0 15.0 0 1
+ 1.014 7 8 cbr 500 ------- 1 5.0 15.0 0 1
+ 1.015 4 7 cbr 500 ------- 1 4.0 14.0 3 10
- 1.015 4 7 cbr 500 ------- 1 4.0 14.0 3 10
+ 1.015 5 7 cbr 500 ------- 1 5.0 15.0 3 11
- 1.015 5 7 cbr 500 ------- 1 5.0 15.0 3 11
- 1.0165 7 8 cbr 500 ------- 1 5.0 15.0 0 1
r 1.019 4 7 cbr 500 ------- 1 4.0 14.0 1 6
+ 1.019 7 8 cbr 500 ------- 1 4.0 14.0 1 6
r 1.019 5 7 cbr 500 ------- 1 5.0 15.0 1 7
+ 1.019 7 8 cbr 500 ------- 1 5.0 15.0 1 7
- 1.019 7 8 cbr 500 ------- 1 4.0 14.0 1 6
+ 1.02 4 7 cbr 500 ------- 1 4.0 14.0 4 12
- 1.02 4 7 cbr 500 ------- 1 4.0 14.0 4 12
+ 1.02 5 7 cbr 500 ------- 1 5.0 15.0 4 13
- 1.02 5 7 cbr 500 ------- 1 5.0 15.0 4 13
r 1.02042 6 8 tcp 40 ------- 0 0.0 10.0 0 2
+ 1.02042 8 9 tcp 40 ------- 0 0.0 10.0 0 2
- 1.02042 8 9 tcp 40 ------- 0 0.0 10.0 0 2
r 1.02052 6 8 tcp 40 ------- 0 1.0 11.0 0 3
+ 1.02052 8 9 tcp 40 ------- 0 1.0 11.0 0 3
- 1.02052 8 9 tcp 40 ------- 0 1.0 11.0 0 3
r 1.02062 6 8 tcp 40 ------- 0 2.0 12.0 0 4
+ 1.02062 8 9 tcp 40 ------- 0 2.0 12.0 0 4
- 1.02062 8 9 tcp 40 ------- 0 2.0 12.0 0 4
r 1.02072 6 8 tcp 40 ------- 0 3.0 13.0 0 5
+ 1.02072 8 9 tcp 40 ------- 0 3.0 13.0 0 5
- 1.02072 8 9 tcp 40 ------- 0 3.0 13.0 0 5
- 1.0215 7 8 cbr 500 ------- 1 5.0 15.0 1 7
r 1.024 4 7 cbr 500 ------- 1 4.0 14.0 2 8
+ 1.024 7 8 cbr 500 ------- 1 4.0 14.0 2 8
r 1.024 5 7 cbr 500 ------- 1 5.0 15.0 2 9
+ 1.024 7 8 cbr 500 ------- 1 5.0 15.0 2 9
- 1.024 7 8 cbr 500 ------- 1 4.0 14.0 2 8
+ 1.025 4 7 cbr 500 ------- 1 4.0 14.0 5 14
- 1.025 4 7 cbr 500 ------- 1 4.0 14.0 5 14
+ 1.025 5 7 cbr 500 ------- 1 5.0 15.0 5 15
- 1.025 5 7 cbr 500 ------- 1 5.0 15.0 5 15
- 1.0265 7 8 cbr 500 ------- 1 5.0 15.0 2 9
r 1.0265 7 8 cbr 500 ------- 1 4.0 14.0 0 0
+ 1.0265 8 9 cbr 500 ------- 1 4.0 14.0 0 0
- 1.0265 8 9 cbr 500 ------- 1 4.0 14.0 0 0
r 1.029 4 7 cbr 500 ------- 1 4.0 14.0 3 10
+ 1.029 7 8 cbr 500 ------- 1 4.0 14.0 3 10
r 1.029 5 7 cbr 500 ------- 1 5.0 15.0 3 11
+ 1.029 7 8 cbr 500 ------- 1 5.0 15.0 3 11
- 1.029 7 8 cbr 500 ------- 1 4.0 14.0 3 10
r 1.029 7 8 cbr 500 ------- 1 5.0 15.0 0 1
+ 1.029 8 9 cbr 500 ------- 1 5.0 15.0 0 1
- 1.029 8 9 cbr 500 ------- 1 5.0 15.0 0 1
+ 1.03 4 7 cbr 500 ------- 1 4.0 14.0 6 16
- 1.03 4 7 cbr 500 ------- 1 4.0 14.0 6 16
+ 1.03 5 7 cbr 500 ------- 1 5.0 15.0 6 17
- 1.03 5 7 cbr 500 ------- 1 5.0 15.0 6 17
r 1.0305 8 9 tcp 40 ------- 0 0.0 10.0 0 2
+ 1.0305 9 10 tcp 40 ------- 0 0.0 10.0 0 2
- 1.0305 9 10 tcp 40 ------- 0 0.0 10.0 0 2
r 1.0306 8 9 tcp 40 ------- 0 1.0 11.0 0 3
+ 1.0306 9 11 tcp 40 ------- 0 1.0 11.0 0 3
- 1.0306 9 11 tcp 40 ------- 0 1.0 11.0 0 3
r 1.0307 8 9 tcp 40 ------- 0 2.0 12.0 0 4
+ 1.0307 9 12 tcp 40 ------- 0 2.0 12.0 0 4
- 1.0307 9 12 tcp 40 ------- 0 2.0 12.0 0 4
r 1.0308 8 9 tcp 40 ------- 0 3.0 13.0 0 5
+ 1.0308 9 13 tcp 40 ------- 0 3.0 13.0 0 5
- 1.0308 9 13 tcp 40 ------- 0 3.0 13.0 0 5
- 1.0315 7 8 cbr 500 ------- 1 5.0 15.0 3 11
r 1.0315 7 8 cbr 500 ------- 1 4.0 14.0 1 6
+ 1.0315 8 9 cbr 500 ------- 1 4.0 14.0 1 6
- 1.0315 8 9 cbr 500 ------- 1 4.0 14.0 1 6
r 1.034 4 7 cbr 500 ------- 1 4.0 14.0 4 12
+ 1.034 7 8 cbr 500 ------- 1 4.0 14.0 4 12
r 1.034 5 7 cbr 500 ------- 1 5.0 15.0 4 13
+ 1.034 7 8 cbr 500 ------- 1 5.0 15.0 4 13
- 1.034 7 8 cbr 500 ------- 1 4.0 14.0 4 12
r 1.034 7 8 cbr 500 ------- 1 5.0 15.0 1 7
+ 1.034 8 9 cbr 500 ------- 1 5.0 15.0 1 7
- 1.034 8 9 cbr 500 ------- 1 5.0 15.0 1 7
+ 1.035 4 7 cbr 500 ------- 1 4.0 14.0 7 18
- 1.035 4 7 cbr 500 ------- 1 4.0 14.0 7 18
+ 1.035 5 7 cbr 500 ------- 1 5.0 15.0 7 19
- 1.035 5 7 cbr 500 ------- 1 5.0 15.0 7 19
- 1.0365 7 8 cbr 500 ------- 1 5.0 15.0 4 13
r 1.0365 7 8 cbr 500 ------- 1 4.0 14.0 2 8
+ 1.0365 8 9 cbr 500 ------- 1 4.0 14.0 2 8
- 1.0365 8 9 cbr 500 ------- 1 4.0 14.0 2 8
r 1.0375 8 9 cbr 500 ------- 1 4.0 14.0 0 0
+ 1.0375 9 14 cbr 500 ------- 1 4.0 14.0 0 0
- 1.0375 9 14 cbr 500 ------- 1 4.0 14.0 0 0
r 1.039 4 7 cbr 500 ------- 1 4.0 14.0 5 14
+ 1.039 7 8 cbr 500 ------- 1 4.0 14.0 5 14
r 1.039 5 7 cbr 500 ------- 1 5.0 15.0 5 15
+ 1.039 7 8 cbr 500 ------- 1 5.0 15.0 5 15
- 1.039 7 8 cbr 500 ------- 1 4.0 14.0 5 14
r 1.039 7 8 cbr 500 ------- 1 5.0 15.0 2 9
+ 1.039 8 9 cbr 500 ------- 1 5.0 15.0 2 9
- 1.039 8 9 cbr 500 ------- 1 5.0 15.0 2 9
+ 1.04 4 7 cbr 500 ------- 1 4.0 14.0 8 20
- 1.04 4 7 cbr 500 ------- 1 4.0 14.0 8 20
+ 1.04 5 7 cbr 500 ------- 1 5.0 15.0 8 21
- 1.04 5 7 cbr 500 ------- 1 5.0 15.0 8 21
r 1.04 8 9 cbr 500 ------- 1 5.0 15.0 0 1
+ 1.04 9 15 cbr 500 ------- 1 5.0 15.0 0 1
- 1.04 9 15 cbr 500 ------- 1 5.0 15.0 0 1
r 1.04082 9 10 tcp 40 ------- 0 0.0 10.0 0 2
+ 1.04082 10 9 ack 40 ------- 0 10.0 0.0 0 22
- 1.04082 10 9 ack 40 ------- 0 10.0 0.0 0 22
r 1.04092 9 11 tcp 40 ------- 0 1.0 11.0 0 3
+ 1.04092 11 9 ack 40 ------- 0 11.0 1.0 0 23
- 1.04092 11 9 ack 40 ------- 0 11.0 1.0 0 23
r 1.04102 9 12 tcp 40 ------- 0 2.0 12.0 0 4
+ 1.04102 12 9 ack 40 ------- 0 12.0 2.0 0 24
- 1.04102 12 9 ack 40 ------- 0 12.0 2.0 0 24
r 1.04112 9 13 tcp 40 ------- 0 3.0 13.0 0 5
+ 1.04112 13 9 ack 40 ------- 0 13.0 3.0 0 25
- 1.04112 13 9 ack 40 ------- 0 13.0 3.0 0 25
- 1.0415 7 8 cbr 500 ------- 1 5.0 15.0 5 15
r 1.0415 7 8 cbr 500 ------- 1 4.0 14.0 3 10
+ 1.0415 8 9 cbr 500 ------- 1 4.0 14.0 3 10
- 1.0415 8 9 cbr 500 ------- 1 4.0 14.0 3 10
r 1.0425 8 9 cbr 500 ------- 1 4.0 14.0 1 6
+ 1.0425 9 14 cbr 500 ------- 1 4.0 14.0 1 6
- 1.0425 9 14 cbr 500 ------- 1 4.0 14.0 1 6
r 1.044 4 7 cbr 500 ------- 1 4.0 14.0 6 16
+ 1.044 7 8 cbr 500 ------- 1 4.0 14.0 6 16
r 1.044 5 7 cbr 500 ------- 1 5.0 15.0 6 17
+ 1.044 7 8 cbr 500 ------- 1 5.0 15.0 6 17
- 1.044 7 8 cbr 500 ------- 1 4.0 14.0 6 16
r 1.044 7 8 cbr 500 ------- 1 5.0 15.0 3 11
+ 1.044 8 9 cbr 500 ------- 1 5.0 15.0 3 11
- 1.044 8 9 cbr 500 ------- 1 5.0 15.0 3 11
+ 1.045 4 7 cbr 500 ------- 1 4.0 14.0 9 26
- 1.045 4 7 cbr 500 ------- 1 4.0 14.0 9 26
+ 1.045 5 7 cbr 500 ------- 1 5.0 15.0 9 27
- 1.045 5 7 cbr 500 ------- 1 5.0 15.0 9 27
r 1.045 8 9 cbr 500 ------- 1 5.0 15.0 1 7
+ 1.045 9 15 cbr 500 ------- 1 5.0 15.0 1 7
- 1.045 9 15 cbr 500 ------- 1 5.0 15.0 1 7
- 1.0465 7 8 cbr 500 ------- 1 5.0 15.0 6 17
r 1.0465 7 8 cbr 500 ------- 1 4.0 14.0 4 12
+ 1.0465 8 9 cbr 500 ------- 1 4.0 14.0 4 12
- 1.0465 8 9 cbr 500 ------- 1 4.0 14.0 4 12
r 1.0475 8 9 cbr 500 ------- 1 4.0 14.0 2 8
+ 1.0475 9 14 cbr 500 ------- 1 4.0 14.0 2 8
- 1.0475 9 14 cbr 500 ------- 1 4.0 14.0 2 8
r 1.049 4 7 cbr 500 ------- 1 4.0 14.0 7 18
+ 1.049 7 8 cbr 500 ------- 1 4.0 14.0 7 18
r 1.049 5 7 cbr 500 ------- 1 5.0 15.0 7 19
+ 1.049 7 8 cbr 500 ------- 1 5.0 15.0 7 19
- 1.049 7 8 cbr 500 ------- 1 4.0 14.0 7 18
r 1.049 7 8 cbr 500 ------- 1 5.0 15.0 4 13
+ 1.049 8 9 cbr 500 ------- 1 5.0 15.0 4 13
- 1.049 8 9 cbr 500 ------- 1 5.0 15.0 4 13
+ 1.05 4 7 cbr 500 ------- 1 4.0 14.0 10 28
- 1.05 4 7 cbr 500 ------- 1 4.0 14.0 10 28
+ 1.05 5 7 cbr 500 ------- 1 5.0 15.0 10 29
- 1.05 5 7 cbr 500 ------- 1 5.0 15.0 10 29
r 1.05 8 9 cbr 500 ------- 1 5.0 15.0 2 9
+ 1.05 9 15 cbr 500 ------- 1 5.0 15.0 2 9
- 1.05 9 15 cbr 500 ------- 1 5.0 15.0 2 9
r 1.05114 10 9 ack 40 ------- 0 10.0 0.0 0 22
+ 1.05114 9 8 ack 40 ------- 0 10.0 0.0 0 22
- 1.05114 9 8 ack 40 ------- 0 10.0 0.0 0 22
r 1.05124 11 9 ack 40 ------- 0 11.0 1.0 0 23
+ 1.05124 9 8 ack 40 ------- 0 11.0 1.0 0 23
- 1.05124 9 8 ack 40 ------- 0 11.0 1.0 0 23
r 1.05134 12 9 ack 40 ------- 0 12.0 2.0 0 24
+ 1.05134 9 8 ack 40 ------- 0 12.0 2.0 0 24
- 1.05134 9 8 ack 40 ------- 0 12.0 2.0 0 24
r 1.05144 13 9 ack 40 ------- 0 13.0 3.0 0 25
+ 1.05144 9 8 ack 40 ------- 0 13.0 3.0 0 25
- 1.05144 9 8 ack 40 ------- 0 13.0 3.0 0 25
- 1.0515 7 8 cbr 500 ------- 1 5.0 15.0 7 19
r 1.0515 7 8 cbr 500 ------- 1 4.0 14.0 5 14
+ 1.0515 8 9 cbr 500 ------- 1 4.0 14.0 5 14
- 1.0515 8 9 cbr 500 ------- 1 4.0 14.0 5 14
r 1.0515 9 14 cbr 500 ------- 1 4.0 14.0 0 0
r 1.0525 8 9 cbr 500 ------- 1 4.0 14.0 3 10
+ 1.0525 9 14 cbr 500 ------- 1 4.0 14.0 3 10
- 1.0525 9 14 cbr 500 ------- 1 4.0 14.0 3 10
r 1.054 4 7 cbr 500 ------- 1 4.0 14.0 8 20
+ 1.054 7 8 cbr 500 ------- 1 4.0 14.0 8 20
r 1.054 5 7 cbr 500 ------- 1 5.0 15.0 8 21
+ 1.054 7 8 cbr 500 ------- 1 5.0 15.0 8 21
- 1.054 7 8 cbr 500 ------- 1 4.0 14.0 8 20
r 1.054 7 8 cbr 500 ------- 1 5.0 15.0 5 15
+ 1.054 8 9 cbr 500 ------- 1 5.0 15.0 5 15
- 1.054 8 9 cbr 500 ------- 1 5.0 15.0 5 15
r 1.054 9 15 cbr 500 ------- 1 5.0 15.0 0 1
+ 1.055 4 7 cbr 500 ------- 1 4.0 14.0 11 30
- 1.055 4 7 cbr 500 ------- 1 4.0 14.0 11 30
+ 1.055 5 7 cbr 500 ------- 1 5.0 15.0 11 31
- 1.055 5 7 cbr 500 ------- 1 5.0 15.0 11 31
r 1.055 8 9 cbr 500 ------- 1 5.0 15.0 3 11
+ 1.055 9 15 cbr 500 ------- 1 5.0 15.0 3 11
- 1.055 9 15 cbr 500 ------- 1 5.0 15.0 3 11
- 1.0565 7 8 cbr 500 ------- 1 5.0 15.0 8 21
r 1.0565 7 8 cbr 500 ------- 1 4.0 14.0 6 16
+ 1.0565 8 9 cbr 500 ------- 1 4.0 14.0 6 16
- 1.0565 8 9 cbr 500 ------- 1 4.0 14.0 6 16
r 1.0565 9 14 cbr 500 ------- 1 4.0 14.0 1 6
r 1.0575 8 9 cbr 500 ------- 1 4.0 14.0 4 12
+ 1.0575 9 14 cbr 500 ------- 1 4.0 14.0 4 12
- 1.0575 9 14 cbr 500 ------- 1 4.0 14.0 4 12
r 1.059 4 7 cbr 500 ------- 1 4.0 14.0 9 26
+ 1.059 7 8 cbr 500 ------- 1 4.0 14.0 9 26
r 1.059 5 7 cbr 500 ------- 1 5.0 15.0 9 27
+ 1.059 7 8 cbr 500 ------- 1 5.0 15.0 9 27
- 1.059 7 8 cbr 500 ------- 1 4.0 14.0 9 26
r 1.059 7 8 cbr 500 ------- 1 5.0 15.0 6 17
+ 1.059 8 9 cbr 500 ------- 1 5.0 15.0 6 17
- 1.059 8 9 cbr 500 ------- 1 5.0 15.0 6 17
r 1.059 9 15 cbr 500 ------- 1 5.0 15.0 1 7
+ 1.06 4 7 cbr 500 ------- 1 4.0 14.0 12 32
- 1.06 4 7 cbr 500 ------- 1 4.0 14.0 12 32
+ 1.06 5 7 cbr 500 ------- 1 5.0 15.0 12 33
- 1.06 5 7 cbr 500 ------- 1 5.0 15.0 12 33
r 1.06 8 9 cbr 500 ------- 1 5.0 15.0 4 13
+ 1.06 9 15 cbr 500 ------- 1 5.0 15.0 4 13
- 1.06 9 15 cbr 500 ------- 1 5.0 15.0 4 13
r 1.061204 9 8 ack 40 ------- 0 10.0 0.0 0 22
+ 1.061204 8 6 ack 40 ------- 0 10.0 0.0 0 22
- 1.061204 8 6 ack 40 ------- 0 10.0 0.0 0 22
r 1.061304 9 8 ack 40 ------- 0 11.0 1.0 0 23
+ 1.061304 8 6 ack 40 ------- 0 11.0 1.0 0 23
- 1.061304 8 6 ack 40 ------- 0 11.0 1.0 0 23
r 1.061404 9 8 ack 40 ------- 0 12.0 2.0 0 24
+ 1.061404 8 6 ack 40 ------- 0 12.0 2.0 0 24
- 1.061404 8 6 ack 40 ------- 0 12.0 2.0 0 24
- 1.0615 7 8 cbr 500 ------- 1 5.0 15.0 9 27
r 1.0615 7 8 cbr 500 ------- 1 4.0 14.0 7 18
+ 1.0615 8 9 cbr 500 ------- 1 4.0 14.0 7 18
- 1.0615 8 9 cbr 500 ------- 1 4.0 14.0 7 18
r 1.0615 9 14 cbr 500 ------- 1 4.0 14.0 2 8
r 1.061504 9 8 ack 40 ------- 0 13.0 3.0 0 25
+ 1.061504 8 6 ack 40 ------- 0 13.0 3.0 0 25
- 1.061504 8 6 ack 40 ------- 0 13.0 3.0 0 25
r 1.0625 8 9 cbr 500 ------- 1 4.0 14.0 5 14
+ 1.0625 9 14 cbr 500 ------- 1 4.0 14.0 5 14
- 1.0625 9 14 cbr 500 ------- 1 4.0 14.0 5 14
r 1.064 4 7 cbr 500 ------- 1 4.0 14.0 10 28
+ 1.064 7 8 cbr 500 ------- 1 4.0 14.0 10 28
r 1.064 5 7 cbr 500 ------- 1 5.0 15.0 10 29
+ 1.064 7 8 cbr 500 ------- 1 5.0 15.0 10 29
- 1.064 7 8 cbr 500 ------- 1 4.0 14.0 10 28
r 1.064 7 8 cbr 500 ------- 1 5.0 15.0 7 19
+ 1.064 8 9 cbr 500 ------- 1 5.0 15.0 7 19
- 1.064 8 9 cbr 500 ------- 1 5.0 15.0 7 19
r 1.064 9 15 cbr 500 ------- 1 5.0 15.0 2 9
+ 1.065 4 7 cbr 500 ------- 1 4.0 14.0 13 34
- 1.065 4 7 cbr 500 ------- 1 4.0 14.0 13 34
+ 1.065 5 7 cbr 500 ------- 1 5.0 15.0 13 35
- 1.065 5 7 cbr 500 ------- 1 5.0 15.0 13 35
r 1.065 8 9 cbr 500 ------- 1 5.0 15.0 5 15
+ 1.065 9 15 cbr 500 ------- 1 5.0 15.0 5 15
- 1.065 9 15 cbr 500 ------- 1 5.0 15.0 5 15
- 1.0665 7 8 cbr 500 ------- 1 5.0 15.0 10 29
r 1.0665 7 8 cbr 500 ------- 1 4.0 14.0 8 20
+ 1.0665 8 9 cbr 500 ------- 1 4.0 14.0 8 20
- 1.0665 8 9 cbr 500 ------- 1 4.0 14.0 8 20
r 1.0665 9 14 cbr 500 ------- 1 4.0 14.0 3 10
r 1.0675 8 9 cbr 500 ------- 1 4.0 14.0 6 16
+ 1.0675 9 14 cbr 500 ------- 1 4.0 14.0 6 16
- 1.0675 9 14 cbr 500 ------- 1 4.0 14.0 6 16
r 1.069 4 7 cbr 500 ------- 1 4.0 14.0 11 30
+ 1.069 7 8 cbr 500 ------- 1 4.0 14.0 11 30
r 1.069 5 7 cbr 500 ------- 1 5.0 15.0 11 31
+ 1.069 7 8 cbr 500 ------- 1 5.0 15.0 11 31
- 1.069 7 8 cbr 500 ------- 1 4.0 14.0 11 30
r 1.069 7 8 cbr 500 ------- 1 5.0 15.0 8 21
+ 1.069 8 9 cbr 500 ------- 1 5.0 15.0 8 21
- 1.069 8 9 cbr 500 ------- 1 5.0 15.0 8 21
r 1.069 9 15 cbr 500 ------- 1 5.0 15.0 3 11
+ 1.07 4 7 cbr 500 ------- 1 4.0 14.0 14 36
- 1.07 4 7 cbr 500 ------- 1 4.0 14.0 14 36
+ 1.07 5 7 cbr 500 ------- 1 5.0 15.0 14 37
- 1.07 5 7 cbr 500 ------- 1 5.0 15.0 14 37
r 1.07 8 9 cbr 500 ------- 1 5.0 15.0 6 17
+ 1.07 9 15 cbr 500 ------- 1 5.0 15.0 6 17
- 1.07 9 15 cbr 500 ------- 1 5.0 15.0 6 17
r 1.071304 8 6 ack 40 ------- 0 10.0 0.0 0 22
+ 1.071304 6 0 ack 40 ------- 0 10.0 0.0 0 22
- 1.071304 6 0 ack 40 ------- 0 10.0 0.0 0 22
r 1.071404 8 6 ack 40 ------- 0 11.0 1.0 0 23
+ 1.071404 6 1 ack 40 ------- 0 11.0 1.0 0 23
- 1.071404 6 1 ack 40 ------- 0 11.0 1.0 0 23
- 1.0715 7 8 cbr 500 ------- 1 5.0 15.0 11 31
r 1.0715 7 8 cbr 500 ------- 1 4.0 14.0 9 26
+ 1.0715 8 9 cbr 500 ------- 1 4.0 14.0 9 26
- 1.0715 8 9 cbr 500 ------- 1 4.0 14.0 9 26
r 1.0715 9 14 cbr 500 ------- 1 4.0 14.0 4 12
r 1.071504 8 6 ack 40 ------- 0 12.0 2.0 0 24
+ 1.071504 6 2 ack 40 ------- 0 12.0 2.0 0 24
- 1.071504 6 2 ack 40 ------- 0 12.0 2.0 0 24
r 1.071604 8 6 ack 40 ------- 0 13.0 3.0 0 25
+ 1.071604 6 3 ack 40 ------- 0 13.0 3.0 0 25
- 1.071604 6 3 ack 40 ------- 0 13.0 3.0 0 25
r 1.0725 8 9 cbr 500 ------- 1 4.0 14.0 7 18
+ 1.0725 9 14 cbr 500 ------- 1 4.0 14.0 7 18
- 1.0725 9 14 cbr 500 ------- 1 4.0 14.0 7 18
r 1.074 4 7 cbr 500 ------- 1 4.0 14.0 12 32
+ 1.074 7 8 cbr 500 ------- 1 4.0 14.0 12 32
r 1.074 5 7 cbr 500 ------- 1 5.0 15.0 12 33
+ 1.074 7 8 cbr 500 ------- 1 5.0 15.0 12 33
- 1.074 7 8 cbr 500 ------- 1 4.0 14.0 12 32
r 1.074 7 8 cbr 500 ------- 1 5.0 15.0 9 27
+ 1.074 8 9 cbr 500 ------- 1 5.0 15.0 9 27
- 1.074 8 9 cbr 500 ------- 1 5.0 15.0 9 27
r 1.074 9 15 cbr 500 ------- 1 5.0 15.0 4 13
+ 1.075 4 7 cbr 500 ------- 1 4.0 14.0 15 38
- 1.075 4 7 cbr 500 ------- 1 4.0 14.0 15 38
+ 1.075 5 7 cbr 500 ------- 1 5.0 15.0 15 39
- 1.075 5 7 cbr 500 ------- 1 5.0 15.0 15 39
r 1.075 8 9 cbr 500 ------- 1 5.0 15.0 7 19
+ 1.075 9 15 cbr 500 ------- 1 5.0 15.0 7 19
- 1.075 9 15 cbr 500 ------- 1 5.0 15.0 7 19
- 1.0765 7 8 cbr 500 ------- 1 5.0 15.0 12 33
r 1.0765 7 8 cbr 500 ------- 1 4.0 14.0 10 28
+ 1.0765 8 9 cbr 500 ------- 1 4.0 14.0 10 28
- 1.0765 8 9 cbr 500 ------- 1 4.0 14.0 10 28
r 1.0765 9 14 cbr 500 ------- 1 4.0 14.0 5 14
r 1.0775 8 9 cbr 500 ------- 1 4.0 14.0 8 20
+ 1.0775 9 14 cbr 500 ------- 1 4.0 14.0 8 20
- 1.0775 9 14 cbr 500 ------- 1 4.0 14.0 8 20
r 1.079 4 7 cbr 500 ------- 1 4.0 14.0 13 34
+ 1.079 7 8 cbr 500 ------- 1 4.0 14.0 13 34
r 1.079 5 7 cbr 500 ------- 1 5.0 15.0 13 35
+ 1.079 7 8 cbr 500 ------- 1 5.0 15.0 13 35
- 1.079 7 8 cbr 500 ------- 1 4.0 14.0 13 34
r 1.079 7 8 cbr 500 ------- 1 5.0 15.0 10 29
+ 1.079 8 9 cbr 500 ------- 1 5.0 15.0 10 29
- 1.079 8 9 cbr 500 ------- 1 5.0 15.0 10 29
r 1.079 9 15 cbr 500 ------- 1 5.0 15.0 5 15
+ 1.08 4 7 cbr 500 ------- 1 4.0 14.0 16 40
- 1.08 4 7 cbr 500 ------- 1 4.0 14.0 16 40
+ 1.08 5 7 cbr 500 ------- 1 5.0 15.0 16 41
- 1.08 5 7 cbr 500 ------- 1 5.0 15.0 16 41
r 1.08 8 9 cbr 500 ------- 1 5.0 15.0 8 21
+ 1.08 9 15 cbr 500 ------- 1 5.0 15.0 8 21
- 1.08 9 15 cbr 500 ------- 1 5.0 15.0 8 21
- 1.0815 7 8 cbr 500 ------- 1 5.0 15.0 13 35
r 1.0815 7 8 cbr 500 ------- 1 4.0 14.0 11 30
+ 1.0815 8 9 cbr 500 ------- 1 4.0 14.0 11 30
- 1.0815 8 9 cbr 500 ------- 1 4.0 14.0 11 30
r 1.0815 9 14 cbr 500 ------- 1 4.0 14.0 6 16
r 1.081624 6 0 ack 40 ------- 0 10.0 0.0 0 22
+ 1.081624 0 6 tcp 540 ------- 0 0.0 10.0 1 42
- 1.081624 0 6 tcp 540 ------- 0 0.0 10.0 1 42
+ 1.081624 0 6 tcp 540 ------- 0 0.0 10.0 2 43
r 1.081724 6 1 ack 40 ------- 0 11.0 1.0 0 23
+ 1.081724 1 6 tcp 540 ------- 0 1.0 11.0 1 44
- 1.081724 1 6 tcp 540 ------- 0 1.0 11.0 1 44
+ 1.081724 1 6 tcp 540 ------- 0 1.0 11.0 2 45
r 1.081824 6 2 ack 40 ------- 0 12.0 2.0 0 24
+ 1.081824 2 6 tcp 540 ------- 0 2.0 12.0 1 46
- 1.081824 2 6 tcp 540 ------- 0 2.0 12.0 1 46
+ 1.081824 2 6 tcp 540 ------- 0 2.0 12.0 2 47
r 1.081924 6 3 ack 40 ------- 0 13.0 3.0 0 25
+ 1.081924 3 6 tcp 540 ------- 0 3.0 13.0 1 48
- 1.081924 3 6 tcp 540 ------- 0 3.0 13.0 1 48
+ 1.081924 3 6 tcp 540 ------- 0 3.0 13.0 2 49
r 1.0825 8 9 cbr 500 ------- 1 4.0 14.0 9 26
+ 1.0825 9 14 cbr 500 ------- 1 4.0 14.0 9 26
- 1.0825 9 14 cbr 500 ------- 1 4.0 14.0 9 26
r 1.084 4 7 cbr 500 ------- 1 4.0 14.0 14 36
+ 1.084 7 8 cbr 500 ------- 1 4.0 14.0 14 36
r 1.084 5 7 cbr 500 ------- 1 5.0 15.0 14 37
+ 1.084 7 8 cbr 500 ------- 1 5.0 15.0 14 37
- 1.084 7 8 cbr 500 ------- 1 4.0 14.0 14 36
r 1.084 7 8 cbr 500 ------- 1 5.0 15.0 11 31
+ 1.084 8 9 cbr 500 ------- 1 5.0 15.0 11 31
- 1.084 8 9 cbr 500 ------- 1 5.0 15.0 11 31
r 1.084 9 15 cbr 500 ------- 1 5.0 15.0 6 17
+ 1.085 4 7 cbr 500 ------- 1 4.0 14.0 17 50
- 1.085 4 7 cbr 500 ------- 1 4.0 14.0 17 50
+ 1.085 5 7 cbr 500 ------- 1 5.0 15.0 17 51
- 1.085 5 7 cbr 500 ------- 1 5.0 15.0 17 51
r 1.085 8 9 cbr 500 ------- 1 5.0 15.0 9 27
+ 1.085 9 15 cbr 500 ------- 1 5.0 15.0 9 27
- 1.085 9 15 cbr 500 ------- 1 5.0 15.0 9 27
- 1.085944 0 6 tcp 540 ------- 0 0.0 10.0 2 43
- 1.086044 1 6 tcp 540 ------- 0 1.0 11.0 2 45
- 1.086144 2 6 tcp 540 ------- 0 2.0 12.0 2 47
- 1.086244 3 6 tcp 540 ------- 0 3.0 13.0 2 49
- 1.0865 7 8 cbr 500 ------- 1 5.0 15.0 14 37
r 1.0865 7 8 cbr 500 ------- 1 4.0 14.0 12 32
+ 1.0865 8 9 cbr 500 ------- 1 4.0 14.0 12 32
- 1.0865 8 9 cbr 500 ------- 1 4.0 14.0 12 32
r 1.0865 9 14 cbr 500 ------- 1 4.0 14.0 7 18
r 1.0875 8 9 cbr 500 ------- 1 4.0 14.0 10 28
+ 1.0875 9 14 cbr 500 ------- 1 4.0 14.0 10 28
- 1.0875 9 14 cbr 500 ------- 1 4.0 14.0 10 28
r 1.089 4 7 cbr 500 ------- 1 4.0 14.0 15 38
+ 1.089 7 8 cbr 500 ------- 1 4.0 14.0 15 38
r 1.089 5 7 cbr 500 ------- 1 5.0 15.0 15 39
+ 1.089 7 8 cbr 500 ------- 1 5.0 15.0 15 39
- 1.089 7 8 cbr 500 ------- 1 4.0 14.0 15 38
r 1.089 7 8 cbr 500 ------- 1 5.0 15.0 12 33
+ 1.089 8 9 cbr 500 ------- 1 5.0 15.0 12 33
- 1.089 8 9 cbr 500 ------- 1 5.0 15.0 12 33
r 1.089 9 15 cbr 500 ------- 1 5.0 15.0 7 19
+ 1.09 4 7 cbr 500 ------- 1 4.0 14.0 18 52
- 1.09 4 7 cbr 500 ------- 1 4.0 14.0 18 52
+ 1.09 5 7 cbr 500 ------- 1 5.0 15.0 18 53
- 1.09 5 7 cbr 500 ------- 1 5.0 15.0 18 53
r 1.09 8 9 cbr 500 ------- 1 5.0 15.0 10 29
+ 1.09 9 15 cbr 500 ------- 1 5.0 15.0 10 29
- 1.09 9 15 cbr 500 ------- 1 5.0 15.0 10 29
- 1.0915 7 8 cbr 500 ------- 1 5.0 15.0 15 39
r 1.0915 7 8 cbr 500 ------- 1 4.0 14.0 13 34
+ 1.0915 8 9 cbr 500 ------- 1 4.0 14.0 13 34
- 1.0915 8 9 cbr 500 ------- 1 4.0 14.0 13 34
r 1.0915 9 14 cbr 500 ------- 1 4.0 14.0 8 20
r 1.0925 8 9 cbr 500 ------- 1 4.0 14.0 11 30
+ 1.0925 9 14 cbr 500 ------- 1 4.0 14.0 11 30
- 1.0925 9 14 cbr 500 ------- 1 4.0 14.0 11 30
r 1.094 4 7 cbr 500 ------- 1 4.0 14.0 16 40
+ 1.094 7 8 cbr 500 ------- 1 4.0 14.0 16 40
r 1.094 5 7 cbr 500 ------- 1 5.0 15.0 16 41
+ 1.094 7 8 cbr 500 ------- 1 5.0 15.0 16 41
- 1.094 7 8 cbr 500 ------- 1 4.0 14.0 16 40
r 1.094 7 8 cbr 500 ------- 1 5.0 15.0 13 35
+ 1.094 8 9 cbr 500 ------- 1 5.0 15.0 13 35
- 1.094 8 9 cbr 500 ------- 1 5.0 15.0 13 35
r 1.094 9 15 cbr 500 ------- 1 5.0 15.0 8 21
+ 1.095 4 7 cbr 500 ------- 1 4.0 14.0 19 54
- 1.095 4 7 cbr 500 ------- 1 4.0 14.0 19 54
+ 1.095 5 7 cbr 500 ------- 1 5.0 15.0 19 55
- 1.095 5 7 cbr 500 ------- 1 5.0 15.0 19 55
r 1.095 8 9 cbr 500 ------- 1 5.0 15.0 11 31
+ 1.095 9 15 cbr 500 ------- 1 5.0 15.0 11 31
- 1.095 9 15 cbr 500 ------- 1 5.0 15.0 11 31
r 1.095944 0 6 tcp 540 ------- 0 0.0 10.0 1 42
+ 1.095944 6 8 tcp 540 ------- 0 0.0 10.0 1 42
- 1.095944 6 8 tcp 540 ------- 0 0.0 10.0 1 42
r 1.096044 1 6 tcp 540 ------- 0 1.0 11.0 1 44
+ 1.096044 6 8 tcp 540 ------- 0 1.0 11.0 1 44
r 1.096144 2 6 tcp 540 ------- 0 2.0 12.0 1 46
+ 1.096144 6 8 tcp 540 ------- 0 2.0 12.0 1 46
r 1.096244 3 6 tcp 540 ------- 0 3.0 13.0 1 48
+ 1.096244 6 8 tcp 540 ------- 0 3.0 13.0 1 48
- 1.0965 7 8 cbr 500 ------- 1 5.0 15.0 16 41
r 1.0965 7 8 cbr 500 ------- 1 4.0 14.0 14 36
+ 1.0965 8 9 cbr 500 ------- 1 4.0 14.0 14 36
- 1.0965 8 9 cbr 500 ------- 1 4.0 14.0 14 36
r 1.0965 9 14 cbr 500 ------- 1 4.0 14.0 9 26
- 1.097294 6 8 tcp 540 ------- 0 1.0 11.0 1 44
r 1.0975 8 9 cbr 500 ------- 1 4.0 14.0 12 32
+ 1.0975 9 14 cbr 500 ------- 1 4.0 14.0 12 32
- 1.0975 9 14 cbr 500 ------- 1 4.0 14.0 12 32
- 1.098644 6 8 tcp 540 ------- 0 2.0 12.0 1 46
r 1.099 4 7 cbr 500 ------- 1 4.0 14.0 17 50
+ 1.099 7 8 cbr 500 ------- 1 4.0 14.0 17 50
r 1.099 5 7 cbr 500 ------- 1 5.0 15.0 17 51
+ 1.099 7 8 cbr 500 ------- 1 5.0 15.0 17 51
- 1.099 7 8 cbr 500 ------- 1 4.0 14.0 17 50
r 1.099 7 8 cbr 500 ------- 1 5.0 15.0 14 37
+ 1.099 8 9 cbr 500 ------- 1 5.0 15.0 14 37
- 1.099 8 9 cbr 500 ------- 1 5.0 15.0 14 37
r 1.099 9 15 cbr 500 ------- 1 5.0 15.0 9 27
- 1.099994 6 8 tcp 540 ------- 0 3.0 13.0 1 48
+ 1.1 4 7 cbr 500 ------- 1 4.0 14.0 20 56
- 1.1 4 7 cbr 500 ------- 1 4.0 14.0 20 56
+ 1.1 5 7 cbr 500 ------- 1 5.0 15.0 20 57
- 1.1 5 7 cbr 500 ------- 1 5.0 15.0 20 57
r 1.1 8 9 cbr 500 ------- 1 5.0 15.0 12 33
+ 1.1 9 15 cbr 500 ------- 1 5.0 15.0 12 33
- 1.1 9 15 cbr 500 ------- 1 5.0 15.0 12 33
r 1.100264 0 6 tcp 540 ------- 0 0.0 10.0 2 43
+ 1.100264 6 8 tcp 540 ------- 0 0.0 10.0 2 43
r 1.100364 1 6 tcp 540 ------- 0 1.0 11.0 2 45
+ 1.100364 6 8 tcp 540 ------- 0 1.0 11.0 2 45
r 1.100464 2 6 tcp 540 ------- 0 2.0 12.0 2 47
+ 1.100464 6 8 tcp 540 ------- 0 2.0 12.0 2 47
r 1.100564 3 6 tcp 540 ------- 0 3.0 13.0 2 49
+ 1.100564 6 8 tcp 540 ------- 0 3.0 13.0 2 49
- 1.101344 6 8 tcp 540 ------- 0 0.0 10.0 2 43
- 1.1015 7 8 cbr 500 ------- 1 5.0 15.0 17 51
r 1.1015 7 8 cbr 500 ------- 1 4.0 14.0 15 38
+ 1.1015 8 9 cbr 500 ------- 1 4.0 14.0 15 38
- 1.1015 8 9 cbr 500 ------- 1 4.0 14.0 15 38
r 1.1015 9 14 cbr 500 ------- 1 4.0 14.0 10 28
r 1.1025 8 9 cbr 500 ------- 1 4.0 14.0 13 34
+ 1.1025 9 14 cbr 500 ------- 1 4.0 14.0 13 34
- 1.1025 9 14 cbr 500 ------- 1 4.0 14.0 13 34
- 1.102694 6 8 tcp 540 ------- 0 1.0 11.0 2 45
r 1.104 4 7 cbr 500 ------- 1 4.0 14.0 18 52
+ 1.104 7 8 cbr 500 ------- 1 4.0 14.0 18 52
r 1.104 5 7 cbr 500 ------- 1 5.0 15.0 18 53
+ 1.104 7 8 cbr 500 ------- 1 5.0 15.0 18 53
- 1.104 7 8 cbr 500 ------- 1 4.0 14.0 18 52
r 1.104 7 8 cbr 500 ------- 1 5.0 15.0 15 39
+ 1.104 8 9 cbr 500 ------- 1 5.0 15.0 15 39
- 1.104 8 9 cbr 500 ------- 1 5.0 15.0 15 39
r 1.104 9 15 cbr 500 ------- 1 5.0 15.0 10 29
- 1.104044 6 8 tcp 540 ------- 0 2.0 12.0 2 47
+ 1.105 4 7 cbr 500 ------- 1 4.0 14.0 21 58
- 1.105 4 7 cbr 500 ------- 1 4.0 14.0 21 58
+ 1.105 5 7 cbr 500 ------- 1 5.0 15.0 21 59
- 1.105 5 7 cbr 500 ------- 1 5.0 15.0 21 59
r 1.105 8 9 cbr 500 ------- 1 5.0 15.0 13 35
+ 1.105 9 15 cbr 500 ------- 1 5.0 15.0 13 35
- 1.105 9 15 cbr 500 ------- 1 5.0 15.0 13 35
- 1.105394 6 8 tcp 540 ------- 0 3.0 13.0 2 49
- 1.1065 7 8 cbr 500 ------- 1 5.0 15.0 18 53
r 1.1065 7 8 cbr 500 ------- 1 4.0 14.0 16 40
+ 1.1065 8 9 cbr 500 ------- 1 4.0 14.0 16 40
- 1.1065 8 9 cbr 500 ------- 1 4.0 14.0 16 40
r 1.1065 9 14 cbr 500 ------- 1 4.0 14.0 11 30
r 1.107294 6 8 tcp 540 ------- 0 0.0 10.0 1 42
+ 1.107294 8 9 tcp 540 ------- 0 0.0 10.0 1 42
- 1.1075 8 9 tcp 540 ------- 0 0.0 10.0 1 42
r 1.1075 8 9 cbr 500 ------- 1 4.0 14.0 14 36
+ 1.1075 9 14 cbr 500 ------- 1 4.0 14.0 14 36
- 1.1075 9 14 cbr 500 ------- 1 4.0 14.0 14 36
r 1.108644 6 8 tcp 540 ------- 0 1.0 11.0 1 44
+ 1.108644 8 9 tcp 540 ------- 0 1.0 11.0 1 44
- 1.108644 8 9 tcp 540 ------- 0 1.0 11.0 1 44
r 1.109 4 7 cbr 500 ------- 1 4.0 14.0 19 54
+ 1.109 7 8 cbr 500 ------- 1 4.0 14.0 19 54
r 1.109 5 7 cbr 500 ------- 1 5.0 15.0 19 55
+ 1.109 7 8 cbr 500 ------- 1 5.0 15.0 19 55
- 1.109 7 8 cbr 500 ------- 1 4.0 14.0 19 54
r 1.109 7 8 cbr 500 ------- 1 5.0 15.0 16 41
+ 1.109 8 9 cbr 500 ------- 1 5.0 15.0 16 41
r 1.109 9 15 cbr 500 ------- 1 5.0 15.0 11 31
- 1.109724 8 9 cbr 500 ------- 1 5.0 15.0 16 41
r 1.109994 6 8 tcp 540 ------- 0 2.0 12.0 1 46
+ 1.109994 8 9 tcp 540 ------- 0 2.0 12.0 1 46
+ 1.11 4 7 cbr 500 ------- 1 4.0 14.0 22 60
- 1.11 4 7 cbr 500 ------- 1 4.0 14.0 22 60
+ 1.11 5 7 cbr 500 ------- 1 5.0 15.0 22 61
- 1.11 5 7 cbr 500 ------- 1 5.0 15.0 22 61
r 1.11 8 9 cbr 500 ------- 1 5.0 15.0 14 37
+ 1.11 9 15 cbr 500 ------- 1 5.0 15.0 14 37
- 1.11 9 15 cbr 500 ------- 1 5.0 15.0 14 37
- 1.110724 8 9 tcp 540 ------- 0 2.0 12.0 1 46
r 1.111344 6 8 tcp 540 ------- 0 3.0 13.0 1 48
+ 1.111344 8 9 tcp 540 ------- 0 3.0 13.0 1 48
- 1.1115 7 8 cbr 500 ------- 1 5.0 15.0 19 55
r 1.1115 7 8 cbr 500 ------- 1 4.0 14.0 17 50
+ 1.1115 8 9 cbr 500 ------- 1 4.0 14.0 17 50
r 1.1115 9 14 cbr 500 ------- 1 4.0 14.0 12 32
- 1.111804 8 9 tcp 540 ------- 0 3.0 13.0 1 48
r 1.1125 8 9 cbr 500 ------- 1 4.0 14.0 15 38
+ 1.1125 9 14 cbr 500 ------- 1 4.0 14.0 15 38
- 1.1125 9 14 cbr 500 ------- 1 4.0 14.0 15 38
r 1.112694 6 8 tcp 540 ------- 0 0.0 10.0 2 43
+ 1.112694 8 9 tcp 540 ------- 0 0.0 10.0 2 43
- 1.112884 8 9 tcp 540 ------- 0 0.0 10.0 2 43
- 1.113964 8 9 cbr 500 ------- 1 4.0 14.0 17 50
r 1.114 4 7 cbr 500 ------- 1 4.0 14.0 20 56
+ 1.114 7 8 cbr 500 ------- 1 4.0 14.0 20 56
r 1.114 5 7 cbr 500 ------- 1 5.0 15.0 20 57
+ 1.114 7 8 cbr 500 ------- 1 5.0 15.0 20 57
- 1.114 7 8 cbr 500 ------- 1 4.0 14.0 20 56
r 1.114 7 8 cbr 500 ------- 1 5.0 15.0 17 51
+ 1.114 8 9 cbr 500 ------- 1 5.0 15.0 17 51
r 1.114 9 15 cbr 500 ------- 1 5.0 15.0 12 33
r 1.114044 6 8 tcp 540 ------- 0 1.0 11.0 2 45
+ 1.114044 8 9 tcp 540 ------- 0 1.0 11.0 2 45
- 1.114964 8 9 tcp 540 ------- 0 1.0 11.0 2 45
+ 1.115 4 7 cbr 500 ------- 1 4.0 14.0 23 62
- 1.115 4 7 cbr 500 ------- 1 4.0 14.0 23 62
+ 1.115 5 7 cbr 500 ------- 1 5.0 15.0 23 63
- 1.115 5 7 cbr 500 ------- 1 5.0 15.0 23 63
r 1.115 8 9 cbr 500 ------- 1 5.0 15.0 15 39
+ 1.115 9 15 cbr 500 ------- 1 5.0 15.0 15 39
- 1.115 9 15 cbr 500 ------- 1 5.0 15.0 15 39
r 1.115394 6 8 tcp 540 ------- 0 2.0 12.0 2 47
+ 1.115394 8 9 tcp 540 ------- 0 2.0 12.0 2 47
- 1.116044 8 9 tcp 540 ------- 0 2.0 12.0 2 47
- 1.1165 7 8 cbr 500 ------- 1 5.0 15.0 20 57
r 1.1165 7 8 cbr 500 ------- 1 4.0 14.0 18 52
+ 1.1165 8 9 cbr 500 ------- 1 4.0 14.0 18 52
r 1.1165 9 14 cbr 500 ------- 1 4.0 14.0 13 34
r 1.116744 6 8 tcp 540 ------- 0 3.0 13.0 2 49
+ 1.116744 8 9 tcp 540 ------- 0 3.0 13.0 2 49
- 1.117124 8 9 tcp 540 ------- 0 3.0 13.0 2 49
r 1.1175 8 9 cbr 500 ------- 1 4.0 14.0 16 40
+ 1.1175 9 14 cbr 500 ------- 1 4.0 14.0 16 40
- 1.1175 9 14 cbr 500 ------- 1 4.0 14.0 16 40
- 1.118204 8 9 cbr 500 ------- 1 5.0 15.0 17 51
r 1.11858 8 9 tcp 540 ------- 0 0.0 10.0 1 42
+ 1.11858 9 10 tcp 540 ------- 0 0.0 10.0 1 42
- 1.11858 9 10 tcp 540 ------- 0 0.0 10.0 1 42
r 1.119 4 7 cbr 500 ------- 1 4.0 14.0 21 58
+ 1.119 7 8 cbr 500 ------- 1 4.0 14.0 21 58
r 1.119 5 7 cbr 500 ------- 1 5.0 15.0 21 59
+ 1.119 7 8 cbr 500 ------- 1 5.0 15.0 21 59
- 1.119 7 8 cbr 500 ------- 1 4.0 14.0 21 58
r 1.119 7 8 cbr 500 ------- 1 5.0 15.0 18 53
+ 1.119 8 9 cbr 500 ------- 1 5.0 15.0 18 53
r 1.119 9 15 cbr 500 ------- 1 5.0 15.0 13 35
- 1.119204 8 9 cbr 500 ------- 1 4.0 14.0 18 52
r 1.119724 8 9 tcp 540 ------- 0 1.0 11.0 1 44
+ 1.119724 9 11 tcp 540 ------- 0 1.0 11.0 1 44
- 1.119724 9 11 tcp 540 ------- 0 1.0 11.0 1 44
+ 1.12 4 7 cbr 500 ------- 1 4.0 14.0 24 64
- 1.12 4 7 cbr 500 ------- 1 4.0 14.0 24 64
+ 1.12 5 7 cbr 500 ------- 1 5.0 15.0 24 65
- 1.12 5 7 cbr 500 ------- 1 5.0 15.0 24 65
- 1.120204 8 9 cbr 500 ------- 1 5.0 15.0 18 53
r 1.120724 8 9 cbr 500 ------- 1 5.0 15.0 16 41
+ 1.120724 9 15 cbr 500 ------- 1 5.0 15.0 16 41
- 1.120724 9 15 cbr 500 ------- 1 5.0 15.0 16 41
- 1.1215 7 8 cbr 500 ------- 1 5.0 15.0 21 59
r 1.1215 7 8 cbr 500 ------- 1 4.0 14.0 19 54
+ 1.1215 8 9 cbr 500 ------- 1 4.0 14.0 19 54
- 1.1215 8 9 cbr 500 ------- 1 4.0 14.0 19 54
r 1.1215 9 14 cbr 500 ------- 1 4.0 14.0 14 36
r 1.121804 8 9 tcp 540 ------- 0 2.0 12.0 1 46
+ 1.121804 9 12 tcp 540 ------- 0 2.0 12.0 1 46
- 1.121804 9 12 tcp 540 ------- 0 2.0 12.0 1 46
r 1.122884 8 9 tcp 540 ------- 0 3.0 13.0 1 48
+ 1.122884 9 13 tcp 540 ------- 0 3.0 13.0 1 48
- 1.122884 9 13 tcp 540 ------- 0 3.0 13.0 1 48
r 1.123964 8 9 tcp 540 ------- 0 0.0 10.0 2 43
+ 1.123964 9 10 tcp 540 ------- 0 0.0 10.0 2 43
- 1.123964 9 10 tcp 540 ------- 0 0.0 10.0 2 43
r 1.124 4 7 cbr 500 ------- 1 4.0 14.0 22 60
+ 1.124 7 8 cbr 500 ------- 1 4.0 14.0 22 60
r 1.124 5 7 cbr 500 ------- 1 5.0 15.0 22 61
+ 1.124 7 8 cbr 500 ------- 1 5.0 15.0 22 61
- 1.124 7 8 cbr 500 ------- 1 4.0 14.0 22 60
r 1.124 7 8 cbr 500 ------- 1 5.0 15.0 19 55
+ 1.124 8 9 cbr 500 ------- 1 5.0 15.0 19 55
- 1.124 8 9 cbr 500 ------- 1 5.0 15.0 19 55
r 1.124 9 15 cbr 500 ------- 1 5.0 15.0 14 37
r 1.124964 8 9 cbr 500 ------- 1 4.0 14.0 17 50
+ 1.124964 9 14 cbr 500 ------- 1 4.0 14.0 17 50
- 1.124964 9 14 cbr 500 ------- 1 4.0 14.0 17 50