+ 1 4 7 cbr 500 ------- 1 4.0 14.0 0 0
- 1 4 7 cbr 500 ------- 1 4.0 14.0 0 0
+ 1 5 7 cbr 500 ------- 1 5.0 15.0 0 1
- 1 5 7 cbr 500 ------- 1 5.0 15.0 0 1
+ 1 0 6 tcp 40 ------- 0 0.0 10.0 0 2
- 1 0 6 tcp 40 ------- 0 0.0 10.0 0 2
+ 1 1 6 tcp 40 ------- 0 1.0 11.0 0 3
- 1 1 6 tcp 40 ------- 0 1.0 11.0 0 3
+ 1 2 6 tcp 40 ------- 0 2.0 12.0 0 4
- 1 2 6 tcp 40 ------- 0 2.0 12.0 0 4
+ 1 3 6 tcp 40 ------- 0 3.0 13.0 0 5
- 1 3 6 tcp 40 ------- 0 3.0 13.0 0 5
+ 1.005 4 7 cbr 500 ------- 1 4.0 14.0 1 6
- 1.005 4 7 cbr 500 ------- 1 4.0 14.0 1 6
+ 1.005 5 7 cbr 500 ------- 1 5.0 15.0 1 7
- 1.005 5 7 cbr 500 ------- 1 5.0 15.0 1 7
+ 1.01 4 7 cbr 500 ------- 1 4.0 14.0 2 8
- 1.01 4 7 cbr 500 ------- 1 4.0 14.0 2 8
+ 1.01 5 7 cbr 500 ------- 1 5.0 15.0 2 9
- 1.01 5 7 cbr 500 ------- 1 5.0 15.0 2 9
r 1.01032 0 6 tcp 40 ------- 0 0.0 10.0 0 2
+ 1.01032 6 8 tcp 40 ------- 0 0.0 10.0 0 2
- 1.01032 6 8 tcp 40 ------- 0 0.0 10.0 0 2
r 1.01032 1 6 tcp 40 ------- 0 1.0 11.0 0 3
+ 1.01032 6 8 tcp 40 ------- 0 1.0 11.0 0 3
r 1.01032 2 6 tcp 40 ------- 0 2.0 12.0 0 4
+ 1.01032 6 8 tcp 40 ------- 0 2.0 12.0 0 4
r 1.01032 3 6 tcp 40 ------- 0 3.0 13.0 0 5
+ 1.01032 6 8 tcp 40 ------- 0 3.0 13.0 0 5
- 1.01042 6 8 tcp 40 ------- 0 1.0 11.0 0 3
- 1.01052 6 8 tcp 40 ------- 0 2.0 12.0 0 4
- 1.01062 6 8 tcp 40 ------- 0 3.0 13.0 0 5
r 1.014 4 7 cbr 500 ------- 1 4.0 14.0 0 0
+ 1.014 7 8 cbr 500 ------- 1 4.0 14.0 0 0
- 1.014 7 8 cbr 500 ------- 1 4.0 14.0 0 0
r 1.014 5 7 cbr 500 ------- 1 5.0 15.0 0 1
+ 1.014 7 8 cbr 500 ------- 1 5.0 15.0 0 1
+ 1.015 4 7 cbr 500 ------- 1 4.0 14.0 3 10
- 1.015 4 7 cbr 500 ------- 1 4.0 14.0 3 10
+ 1.015 5 7 cbr 500 ------- 1 5.0 15.0 3 11
- 1.015 5 7 cbr 500 ------- 1 5.0 15.0 3 11
- 1.0165 7 8 cbr 500 ------- 1 5.0 15.0 0 1
r 1.019 4 7 cbr 500 ------- 1 4.0 14.0 1 6
+ 1.019 7 8 cbr 500 ------- 1 4.0 14.0 1 6
r 1.019 5 7 cbr 500 ------- 1 5.0 15.0 1 7
+ 1.019 7 8 cbr 500 ------- 1 5.0 15.0 1 7
- 1.019 7 8 cbr 500 ------- 1 4.0 14.0 1 6
+ 1.02 4 7 cbr 500 ------- 1 4.0 14.0 4 12
- 1.02 4 7 cbr 500 ------- 1 4.0 14.0 4 12
+ 1.02 5 7 cbr 500 ------- 1 5.0 15.0 4 13
- 1.02 5 7 cbr 500 ------- 1 5.0 15.0 4 13
r 1.02042 6 8 tcp 40 ------- 0 0.0 10.0 0 2
+ 1.02042 8 9 tcp 40 ------- 0 0.0 10.0 0 2
- 1.02042 8 9 tcp 40 ------- 0 0.0 10.0 0 2
r 1.02052 6 8 tcp 40 ------- 0 1.0 11.0 0 3
+ 1.02052 8 9 tcp 40 ------- 0 1.0 11.0 0 3
- 1.020553 8 9 tcp 40 ------- 0 1.0 11.0 0 3
r 1.02062 6 8 tcp 40 ------- 0 2.0 12.0 0 4
+ 1.02062 8 9 tcp 40 ------- 0 2.0 12.0 0 4
- 1.020687 8 9 tcp 40 ------- 0 2.0 12.0 0 4
r 1.02072 6 8 tcp 40 ------- 0 3.0 13.0 0 5
+ 1.02072 8 9 tcp 40 ------- 0 3.0 13.0 0 5
- 1.02082 8 9 tcp 40 ------- 0 3.0 13.0 0 5
- 1.0215 7 8 cbr 500 ------- 1 5.0 15.0 1 7
r 1.024 4 7 cbr 500 ------- 1 4.0 14.0 2 8
+ 1.024 7 8 cbr 500 ------- 1 4.0 14.0 2 8
r 1.024 5 7 cbr 500 ------- 1 5.0 15.0 2 9
+ 1.024 7 8 cbr 500 ------- 1 5.0 15.0 2 9
- 1.024 7 8 cbr 500 ------- 1 4.0 14.0 2 8
+ 1.025 4 7 cbr 500 ------- 1 4.0 14.0 5 14
- 1.025 4 7 cbr 500 ------- 1 4.0 14.0 5 14
+ 1.025 5 7 cbr 500 ------- 1 5.0 15.0 5 15
- 1.025 5 7 cbr 500 ------- 1 5.0 15.0 5 15
- 1.0265 7 8 cbr 500 ------- 1 5.0 15.0 2 9
r 1.0265 7 8 cbr 500 ------- 1 4.0 14.0 0 0
+ 1.0265 8 9 cbr 500 ------- 1 4.0 14.0 0 0
- 1.0265 8 9 cbr 500 ------- 1 4.0 14.0 0 0
r 1.029 4 7 cbr 500 ------- 1 4.0 14.0 3 10
+ 1.029 7 8 cbr 500 ------- 1 4.0 14.0 3 10
r 1.029 5 7 cbr 500 ------- 1 5.0 15.0 3 11
+ 1.029 7 8 cbr 500 ------- 1 5.0 15.0 3 11
- 1.029 7 8 cbr 500 ------- 1 4.0 14.0 3 10
r 1.029 7 8 cbr 500 ------- 1 5.0 15.0 0 1
+ 1.029 8 9 cbr 500 ------- 1 5.0 15.0 0 1
- 1.029 8 9 cbr 500 ------- 1 5.0 15.0 0 1
+ 1.03 4 7 cbr 500 ------- 1 4.0 14.0 6 16
- 1.03 4 7 cbr 500 ------- 1 4.0 14.0 6 16
+ 1.03 5 7 cbr 500 ------- 1 5.0 15.0 6 17
- 1.03 5 7 cbr 500 ------- 1 5.0 15.0 6 17
r 1.030553 8 9 tcp 40 ------- 0 0.0 10.0 0 2
+ 1.030553 9 10 tcp 40 ------- 0 0.0 10.0 0 2
- 1.030553 9 10 tcp 40 ------- 0 0.0 10.0 0 2
r 1.030687 8 9 tcp 40 ------- 0 1.0 11.0 0 3
+ 1.030687 9 11 tcp 40 ------- 0 1.0 11.0 0 3
- 1.030687 9 11 tcp 40 ------- 0 1.0 11.0 0 3
r 1.03082 8 9 tcp 40 ------- 0 2.0 12.0 0 4
+ 1.03082 9 12 tcp 40 ------- 0 2.0 12.0 0 4
- 1.03082 9 12 tcp 40 ------- 0 2.0 12.0 0 4
r 1.030953 8 9 tcp 40 ------- 0 3.0 13.0 0 5
+ 1.030953 9 13 tcp 40 ------- 0 3.0 13.0 0 5
- 1.030953 9 13 tcp 40 ------- 0 3.0 13.0 0 5
- 1.0315 7 8 cbr 500 ------- 1 5.0 15.0 3 11
r 1.0315 7 8 cbr 500 ------- 1 4.0 14.0 1 6
+ 1.0315 8 9 cbr 500 ------- 1 4.0 14.0 1 6
- 1.0315 8 9 cbr 500 ------- 1 4.0 14.0 1 6
r 1.034 4 7 cbr 500 ------- 1 4.0 14.0 4 12
+ 1.034 7 8 cbr 500 ------- 1 4.0 14.0 4 12
r 1.034 5 7 cbr 500 ------- 1 5.0 15.0 4 13
+ 1.034 7 8 cbr 500 ------- 1 5.0 15.0 4 13
- 1.034 7 8 cbr 500 ------- 1 4.0 14.0 4 12
r 1.034 7 8 cbr 500 ------- 1 5.0 15.0 1 7
+ 1.034 8 9 cbr 500 ------- 1 5.0 15.0 1 7
- 1.034 8 9 cbr 500 ------- 1 5.0 15.0 1 7
+ 1.035 4 7 cbr 500 ------- 1 4.0 14.0 7 18
- 1.035 4 7 cbr 500 ------- 1 4.0 14.0 7 18
+ 1.035 5 7 cbr 500 ------- 1 5.0 15.0 7 19
- 1.035 5 7 cbr 500 ------- 1 5.0 15.0 7 19
- 1.0365 7 8 cbr 500 ------- 1 5.0 15.0 4 13
r 1.0365 7 8 cbr 500 ------- 1 4.0 14.0 2 8
+ 1.0365 8 9 cbr 500 ------- 1 4.0 14.0 2 8
- 1.0365 8 9 cbr 500 ------- 1 4.0 14.0 2 8
r 1.038167 8 9 cbr 500 ------- 1 4.0 14.0 0 0
+ 1.038167 9 14 cbr 500 ------- 1 4.0 14.0 0 0
- 1.038167 9 14 cbr 500 ------- 1 4.0 14.0 0 0
r 1.039 4 7 cbr 500 ------- 1 4.0 14.0 5 14
+ 1.039 7 8 cbr 500 ------- 1 4.0 14.0 5 14
r 1.039 5 7 cbr 500 ------- 1 5.0 15.0 5 15
+ 1.039 7 8 cbr 500 ------- 1 5.0 15.0 5 15
- 1.039 7 8 cbr 500 ------- 1 4.0 14.0 5 14
r 1.039 7 8 cbr 500 ------- 1 5.0 15.0 2 9
+ 1.039 8 9 cbr 500 ------- 1 5.0 15.0 2 9
- 1.039 8 9 cbr 500 ------- 1 5.0 15.0 2 9
+ 1.04 4 7 cbr 500 ------- 1 4.0 14.0 8 20
- 1.04 4 7 cbr 500 ------- 1 4.0 14.0 8 20
+ 1.04 5 7 cbr 500 ------- 1 5.0 15.0 8 21
- 1.04 5 7 cbr 500 ------- 1 5.0 15.0 8 21
r 1.040667 8 9 cbr 500 ------- 1 5.0 15.0 0 1
+ 1.040667 9 15 cbr 500 ------- 1 5.0 15.0 0 1
- 1.040667 9 15 cbr 500 ------- 1 5.0 15.0 0 1
r 1.040873 9 10 tcp 40 ------- 0 0.0 10.0 0 2
+ 1.040873 10 9 ack 40 ------- 0 10.0 0.0 0 22
- 1.040873 10 9 ack 40 ------- 0 10.0 0.0 0 22
r 1.041007 9 11 tcp 40 ------- 0 1.0 11.0 0 3
+ 1.041007 11 9 ack 40 ------- 0 11.0 1.0 0 23
- 1.041007 11 9 ack 40 ------- 0 11.0 1.0 0 23
r 1.04114 9 12 tcp 40 ------- 0 2.0 12.0 0 4
+ 1.04114 12 9 ack 40 ------- 0 12.0 2.0 0 24
- 1.04114 12 9 ack 40 ------- 0 12.0 2.0 0 24
r 1.041273 9 13 tcp 40 ------- 0 3.0 13.0 0 5
+ 1.041273 13 9 ack 40 ------- 0 13.0 3.0 0 25
- 1.041273 13 9 ack 40 ------- 0 13.0 3.0 0 25
- 1.0415 7 8 cbr 500 ------- 1 5.0 15.0 5 15
r 1.0415 7 8 cbr 500 ------- 1 4.0 14.0 3 10
+ 1.0415 8 9 cbr 500 ------- 1 4.0 14.0 3 10
- 1.0415 8 9 cbr 500 ------- 1 4.0 14.0 3 10
r 1.043167 8 9 cbr 500 ------- 1 4.0 14.0 1 6
+ 1.043167 9 14 cbr 500 ------- 1 4.0 14.0 1 6
- 1.043167 9 14 cbr 500 ------- 1 4.0 14.0 1 6
r 1.044 4 7 cbr 500 ------- 1 4.0 14.0 6 16
+ 1.044 7 8 cbr 500 ------- 1 4.0 14.0 6 16
r 1.044 5 7 cbr 500 ------- 1 5.0 15.0 6 17
+ 1.044 7 8 cbr 500 ------- 1 5.0 15.0 6 17
- 1.044 7 8 cbr 500 ------- 1 4.0 14.0 6 16
r 1.044 7 8 cbr 500 ------- 1 5.0 15.0 3 11
+ 1.044 8 9 cbr 500 ------- 1 5.0 15.0 3 11
- 1.044 8 9 cbr 500 ------- 1 5.0 15.0 3 11
+ 1.045 4 7 cbr 500 ------- 1 4.0 14.0 9 26
- 1.045 4 7 cbr 500 ------- 1 4.0 14.0 9 26
+ 1.045 5 7 cbr 500 ------- 1 5.0 15.0 9 27
- 1.045 5 7 cbr 500 ------- 1 5.0 15.0 9 27
r 1.045667 8 9 cbr 500 ------- 1 5.0 15.0 1 7
+ 1.045667 9 15 cbr 500 ------- 1 5.0 15.0 1 7
- 1.045667 9 15 cbr 500 ------- 1 5.0 15.0 1 7
- 1.0465 7 8 cbr 500 ------- 1 5.0 15.0 6 17
r 1.0465 7 8 cbr 500 ------- 1 4.0 14.0 4 12
+ 1.0465 8 9 cbr 500 ------- 1 4.0 14.0 4 12
- 1.0465 8 9 cbr 500 ------- 1 4.0 14.0 4 12
r 1.048167 8 9 cbr 500 ------- 1 4.0 14.0 2 8
+ 1.048167 9 14 cbr 500 ------- 1 4.0 14.0 2 8
- 1.048167 9 14 cbr 500 ------- 1 4.0 14.0 2 8
r 1.049 4 7 cbr 500 ------- 1 4.0 14.0 7 18
+ 1.049 7 8 cbr 500 ------- 1 4.0 14.0 7 18
r 1.049 5 7 cbr 500 ------- 1 5.0 15.0 7 19
+ 1.049 7 8 cbr 500 ------- 1 5.0 15.0 7 19
- 1.049 7 8 cbr 500 ------- 1 4.0 14.0 7 18
r 1.049 7 8 cbr 500 ------- 1 5.0 15.0 4 13
+ 1.049 8 9 cbr 500 ------- 1 5.0 15.0 4 13
- 1.049 8 9 cbr 500 ------- 1 5.0 15.0 4 13
+ 1.05 4 7 cbr 500 ------- 1 4.0 14.0 10 28
- 1.05 4 7 cbr 500 ------- 1 4.0 14.0 10 28
+ 1.05 5 7 cbr 500 ------- 1 5.0 15.0 10 29
- 1.05 5 7 cbr 500 ------- 1 5.0 15.0 10 29
r 1.050667 8 9 cbr 500 ------- 1 5.0 15.0 2 9
+ 1.050667 9 15 cbr 500 ------- 1 5.0 15.0 2 9
- 1.050667 9 15 cbr 500 ------- 1 5.0 15.0 2 9
r 1.051193 10 9 ack 40 ------- 0 10.0 0.0 0 22
+ 1.051193 9 8 ack 40 ------- 0 10.0 0.0 0 22
- 1.051193 9 8 ack 40 ------- 0 10.0 0.0 0 22
r 1.051327 11 9 ack 40 ------- 0 11.0 1.0 0 23
+ 1.051327 9 8 ack 40 ------- 0 11.0 1.0 0 23
- 1.051327 9 8 ack 40 ------- 0 11.0 1.0 0 23
r 1.05146 12 9 ack 40 ------- 0 12.0 2.0 0 24
+ 1.05146 9 8 ack 40 ------- 0 12.0 2.0 0 24
- 1.05146 9 8 ack 40 ------- 0 12.0 2.0 0 24
- 1.0515 7 8 cbr 500 ------- 1 5.0 15.0 7 19
r 1.0515 7 8 cbr 500 ------- 1 4.0 14.0 5 14
+ 1.0515 8 9 cbr 500 ------- 1 4.0 14.0 5 14
- 1.0515 8 9 cbr 500 ------- 1 4.0 14.0 5 14
r 1.051593 13 9 ack 40 ------- 0 13.0 3.0 0 25
+ 1.051593 9 8 ack 40 ------- 0 13.0 3.0 0 25
- 1.051593 9 8 ack 40 ------- 0 13.0 3.0 0 25
r 1.052167 9 14 cbr 500 ------- 1 4.0 14.0 0 0
r 1.053167 8 9 cbr 500 ------- 1 4.0 14.0 3 10
+ 1.053167 9 14 cbr 500 ------- 1 4.0 14.0 3 10
- 1.053167 9 14 cbr 500 ------- 1 4.0 14.0 3 10
r 1.054 4 7 cbr 500 ------- 1 4.0 14.0 8 20
+ 1.054 7 8 cbr 500 ------- 1 4.0 14.0 8 20
r 1.054 5 7 cbr 500 ------- 1 5.0 15.0 8 21
+ 1.054 7 8 cbr 500 ------- 1 5.0 15.0 8 21
- 1.054 7 8 cbr 500 ------- 1 4.0 14.0 8 20
r 1.054 7 8 cbr 500 ------- 1 5.0 15.0 5 15
+ 1.054 8 9 cbr 500 ------- 1 5.0 15.0 5 15
- 1.054 8 9 cbr 500 ------- 1 5.0 15.0 5 15
r 1.054667 9 15 cbr 500 ------- 1 5.0 15.0 0 1
+ 1.055 4 7 cbr 500 ------- 1 4.0 14.0 11 30
- 1.055 4 7 cbr 500 ------- 1 4.0 14.0 11 30
+ 1.055 5 7 cbr 500 ------- 1 5.0 15.0 11 31
- 1.055 5 7 cbr 500 ------- 1 5.0 15.0 11 31
r 1.055667 8 9 cbr 500 ------- 1 5.0 15.0 3 11
+ 1.055667 9 15 cbr 500 ------- 1 5.0 15.0 3 11
- 1.055667 9 15 cbr 500 ------- 1 5.0 15.0 3 11
- 1.0565 7 8 cbr 500 ------- 1 5.0 15.0 8 21
r 1.0565 7 8 cbr 500 ------- 1 4.0 14.0 6 16
+ 1.0565 8 9 cbr 500 ------- 1 4.0 14.0 6 16
- 1.0565 8 9 cbr 500 ------- 1 4.0 14.0 6 16
r 1.057167 9 14 cbr 500 ------- 1 4.0 14.0 1 6
r 1.058167 8 9 cbr 500 ------- 1 4.0 14.0 4 12
+ 1.058167 9 14 cbr 500 ------- 1 4.0 14.0 4 12
- 1.058167 9 14 cbr 500 ------- 1 4.0 14.0 4 12
r 1.059 4 7 cbr 500 ------- 1 4.0 14.0 9 26
+ 1.059 7 8 cbr 500 ------- 1 4.0 14.0 9 26
r 1.059 5 7 cbr 500 ------- 1 5.0 15.0 9 27
+ 1.059 7 8 cbr 500 ------- 1 5.0 15.0 9 27
- 1.059 7 8 cbr 500 ------- 1 4.0 14.0 9 26
r 1.059 7 8 cbr 500 ------- 1 5.0 15.0 6 17
+ 1.059 8 9 cbr 500 ------- 1 5.0 15.0 6 17
- 1.059 8 9 cbr 500 ------- 1 5.0 15.0 6 17
r 1.059667 9 15 cbr 500 ------- 1 5.0 15.0 1 7
+ 1.06 4 7 cbr 500 ------- 1 4.0 14.0 12 32
- 1.06 4 7 cbr 500 ------- 1 4.0 14.0 12 32
+ 1.06 5 7 cbr 500 ------- 1 5.0 15.0 12 33
- 1.06 5 7 cbr 500 ------- 1 5.0 15.0 12 33
r 1.060667 8 9 cbr 500 ------- 1 5.0 15.0 4 13
+ 1.060667 9 15 cbr 500 ------- 1 5.0 15.0 4 13
- 1.060667 9 15 cbr 500 ------- 1 5.0 15.0 4 13
r 1.061257 9 8 ack 40 ------- 0 10.0 0.0 0 22
+ 1.061257 8 6 ack 40 ------- 0 10.0 0.0 0 22
- 1.061257 8 6 ack 40 ------- 0 10.0 0.0 0 22
r 1.061391 9 8 ack 40 ------- 0 11.0 1.0 0 23
+ 1.061391 8 6 ack 40 ------- 0 11.0 1.0 0 23
- 1.061391 8 6 ack 40 ------- 0 11.0 1.0 0 23
- 1.0615 7 8 cbr 500 ------- 1 5.0 15.0 9 27
r 1.0615 7 8 cbr 500 ------- 1 4.0 14.0 7 18
+ 1.0615 8 9 cbr 500 ------- 1 4.0 14.0 7 18
- 1.0615 8 9 cbr 500 ------- 1 4.0 14.0 7 18
r 1.061524 9 8 ack 40 ------- 0 12.0 2.0 0 24
+ 1.061524 8 6 ack 40 ------- 0 12.0 2.0 0 24
- 1.061524 8 6 ack 40 ------- 0 12.0 2.0 0 24
r 1.061657 9 8 ack 40 ------- 0 13.0 3.0 0 25
+ 1.061657 8 6 ack 40 ------- 0 13.0 3.0 0 25
- 1.061657 8 6 ack 40 ------- 0 13.0 3.0 0 25
r 1.062167 9 14 cbr 500 ------- 1 4.0 14.0 2 8
r 1.063167 8 9 cbr 500 ------- 1 4.0 14.0 5 14
+ 1.063167 9 14 cbr 500 ------- 1 4.0 14.0 5 14
- 1.063167 9 14 cbr 500 ------- 1 4.0 14.0 5 14
r 1.064 4 7 cbr 500 ------- 1 4.0 14.0 10 28
+ 1.064 7 8 cbr 500 ------- 1 4.0 14.0 10 28
r 1.064 5 7 cbr 500 ------- 1 5.0 15.0 10 29
+ 1.064 7 8 cbr 500 ------- 1 5.0 15.0 10 29
- 1.064 7 8 cbr 500 ------- 1 4.0 14.0 10 28
r 1.064 7 8 cbr 500 ------- 1 5.0 15.0 7 19
+ 1.064 8 9 cbr 500 ------- 1 5.0 15.0 7 19
- 1.064 8 9 cbr 500 ------- 1 5.0 15.0 7 19
r 1.064667 9 15 cbr 500 ------- 1 5.0 15.0 2 9
+ 1.065 4 7 cbr 500 ------- 1 4.0 14.0 13 34
- 1.065 4 7 cbr 500 ------- 1 4.0 14.0 13 34
+ 1.065 5 7 cbr 500 ------- 1 5.0 15.0 13 35
- 1.065 5 7 cbr 500 ------- 1 5.0 15.0 13 35
r 1.065667 8 9 cbr 500 ------- 1 5.0 15.0 5 15
+ 1.065667 9 15 cbr 500 ------- 1 5.0 15.0 5 15
- 1.065667 9 15 cbr 500 ------- 1 5.0 15.0 5 15
- 1.0665 7 8 cbr 500 ------- 1 5.0 15.0 10 29
r 1.0665 7 8 cbr 500 ------- 1 4.0 14.0 8 20
+ 1.0665 8 9 cbr 500 ------- 1 4.0 14.0 8 20
- 1.0665 8 9 cbr 500 ------- 1 4.0 14.0 8 20
r 1.067167 9 14 cbr 500 ------- 1 4.0 14.0 3 10
r 1.068167 8 9 cbr 500 ------- 1 4.0 14.0 6 16
+ 1.068167 9 14 cbr 500 ------- 1 4.0 14.0 6 16
- 1.068167 9 14 cbr 500 ------- 1 4.0 14.0 6 16
r 1.069 4 7 cbr 500 ------- 1 4.0 14.0 11 30
+ 1.069 7 8 cbr 500 ------- 1 4.0 14.0 11 30
r 1.069 5 7 cbr 500 ------- 1 5.0 15.0 11 31
+ 1.069 7 8 cbr 500 ------- 1 5.0 15.0 11 31
- 1.069 7 8 cbr 500 ------- 1 4.0 14.0 11 30
r 1.069 7 8 cbr 500 ------- 1 5.0 15.0 8 21
+ 1.069 8 9 cbr 500 ------- 1 5.0 15.0 8 21
- 1.069 8 9 cbr 500 ------- 1 5.0 15.0 8 21
r 1.069667 9 15 cbr 500 ------- 1 5.0 15.0 3 11
+ 1.07 4 7 cbr 500 ------- 1 4.0 14.0 14 36
- 1.07 4 7 cbr 500 ------- 1 4.0 14.0 14 36
+ 1.07 5 7 cbr 500 ------- 1 5.0 15.0 14 37
- 1.07 5 7 cbr 500 ------- 1 5.0 15.0 14 37
r 1.070667 8 9 cbr 500 ------- 1 5.0 15.0 6 17
+ 1.070667 9 15 cbr 500 ------- 1 5.0 15.0 6 17
- 1.070667 9 15 cbr 500 ------- 1 5.0 15.0 6 17
r 1.071357 8 6 ack 40 ------- 0 10.0 0.0 0 22
+ 1.071357 6 0 ack 40 ------- 0 10.0 0.0 0 22
- 1.071357 6 0 ack 40 ------- 0 10.0 0.0 0 22
r 1.071491 8 6 ack 40 ------- 0 11.0 1.0 0 23
+ 1.071491 6 1 ack 40 ------- 0 11.0 1.0 0 23
- 1.071491 6 1 ack 40 ------- 0 11.0 1.0 0 23
- 1.0715 7 8 cbr 500 ------- 1 5.0 15.0 11 31
r 1.0715 7 8 cbr 500 ------- 1 4.0 14.0 9 26
+ 1.0715 8 9 cbr 500 ------- 1 4.0 14.0 9 26
- 1.0715 8 9 cbr 500 ------- 1 4.0 14.0 9 26
r 1.071624 8 6 ack 40 ------- 0 12.0 2.0 0 24
+ 1.071624 6 2 ack 40 ------- 0 12.0 2.0 0 24
- 1.071624 6 2 ack 40 ------- 0 12.0 2.0 0 24
r 1.071757 8 6 ack 40 ------- 0 13.0 3.0 0 25
+ 1.071757 6 3 ack 40 ------- 0 13.0 3.0 0 25
- 1.071757 6 3 ack 40 ------- 0 13.0 3.0 0 25
r 1.072167 9 14 cbr 500 ------- 1 4.0 14.0 4 12
r 1.073167 8 9 cbr 500 ------- 1 4.0 14.0 7 18
+ 1.073167 9 14 cbr 500 ------- 1 4.0 14.0 7 18
- 1.073167 9 14 cbr 500 ------- 1 4.0 14.0 7 18
r 1.074 4 7 cbr 500 ------- 1 4.0 14.0 12 32
+ 1.074 7 8 cbr 500 ------- 1 4.0 14.0 12 32
r 1.074 5 7 cbr 500 ------- 1 5.0 15.0 12 33
+ 1.074 7 8 cbr 500 ------- 1 5.0 15.0 12 33
- 1.074 7 8 cbr 500 ------- 1 4.0 14.0 12 32
r 1.074 7 8 cbr 500 ------- 1 5.0 15.0 9 27
+ 1.074 8 9 cbr 500 ------- 1 5.0 15.0 9 27
- 1.074 8 9 cbr 500 ------- 1 5.0 15.0 9 27
r 1.074667 9 15 cbr 500 ------- 1 5.0 15.0 4 13
+ 1.075 4 7 cbr 500 ------- 1 4.0 14.0 15 38
- 1.075 4 7 cbr 500 ------- 1 4.0 14.0 15 38
+ 1.075 5 7 cbr 500 ------- 1 5.0 15.0 15 39
- 1.075 5 7 cbr 500 ------- 1 5.0 15.0 15 39
r 1.075667 8 9 cbr 500 ------- 1 5.0 15.0 7 19
+ 1.075667 9 15 cbr 500 ------- 1 5.0 15.0 7 19
- 1.075667 9 15 cbr 500 ------- 1 5.0 15.0 7 19
- 1.0765 7 8 cbr 500 ------- 1 5.0 15.0 12 33
r 1.0765 7 8 cbr 500 ------- 1 4.0 14.0 10 28
+ 1.0765 8 9 cbr 500 ------- 1 4.0 14.0 10 28
- 1.0765 8 9 cbr 500 ------- 1 4.0 14.0 10 28
r 1.077167 9 14 cbr 500 ------- 1 4.0 14.0 5 14
r 1.078167 8 9 cbr 500 ------- 1 4.0 14.0 8 20
+ 1.078167 9 14 cbr 500 ------- 1 4.0 14.0 8 20
- 1.078167 9 14 cbr 500 ------- 1 4.0 14.0 8 20
r 1.079 4 7 cbr 500 ------- 1 4.0 14.0 13 34
+ 1.079 7 8 cbr 500 ------- 1 4.0 14.0 13 34
r 1.079 5 7 cbr 500 ------- 1 5.0 15.0 13 35
+ 1.079 7 8 cbr 500 ------- 1 5.0 15.0 13 35
- 1.079 7 8 cbr 500 ------- 1 4.0 14.0 13 34
r 1.079 7 8 cbr 500 ------- 1 5.0 15.0 10 29
+ 1.079 8 9 cbr 500 ------- 1 5.0 15.0 10 29
- 1.079 8 9 cbr 500 ------- 1 5.0 15.0 10 29
r 1.079667 9 15 cbr 500 ------- 1 5.0 15.0 5 15
+ 1.08 4 7 cbr 500 ------- 1 4.0 14.0 16 40
- 1.08 4 7 cbr 500 ------- 1 4.0 14.0 16 40
+ 1.08 5 7 cbr 500 ------- 1 5.0 15.0 16 41
- 1.08 5 7 cbr 500 ------- 1 5.0 15.0 16 41
r 1.080667 8 9 cbr 500 ------- 1 5.0 15.0 8 21
+ 1.080667 9 15 cbr 500 ------- 1 5.0 15.0 8 21
- 1.080667 9 15 cbr 500 ------- 1 5.0 15.0 8 21
- 1.0815 7 8 cbr 500 ------- 1 5.0 15.0 13 35
r 1.0815 7 8 cbr 500 ------- 1 4.0 14.0 11 30
+ 1.0815 8 9 cbr 500 ------- 1 4.0 14.0 11 30
- 1.0815 8 9 cbr 500 ------- 1 4.0 14.0 11 30
r 1.081677 6 0 ack 40 ------- 0 10.0 0.0 0 22
+ 1.081677 0 6 tcp 540 ------- 0 0.0 10.0 1 42
- 1.081677 0 6 tcp 540 ------- 0 0.0 10.0 1 42
+ 1.081677 0 6 tcp 540 ------- 0 0.0 10.0 2 43
r 1.081811 6 1 ack 40 ------- 0 11.0 1.0 0 23
+ 1.081811 1 6 tcp 540 ------- 0 1.0 11.0 1 44
- 1.081811 1 6 tcp 540 ------- 0 1.0 11.0 1 44
+ 1.081811 1 6 tcp 540 ------- 0 1.0 11.0 2 45
r 1.081944 6 2 ack 40 ------- 0 12.0 2.0 0 24
+ 1.081944 2 6 tcp 540 ------- 0 2.0 12.0 1 46
- 1.081944 2 6 tcp 540 ------- 0 2.0 12.0 1 46
+ 1.081944 2 6 tcp 540 ------- 0 2.0 12.0 2 47
r 1.082077 6 3 ack 40 ------- 0 13.0 3.0 0 25
+ 1.082077 3 6 tcp 540 ------- 0 3.0 13.0 1 48
- 1.082077 3 6 tcp 540 ------- 0 3.0 13.0 1 48
+ 1.082077 3 6 tcp 540 ------- 0 3.0 13.0 2 49
r 1.082167 9 14 cbr 500 ------- 1 4.0 14.0 6 16
r 1.083167 8 9 cbr 500 ------- 1 4.0 14.0 9 26
+ 1.083167 9 14 cbr 500 ------- 1 4.0 14.0 9 26
- 1.083167 9 14 cbr 500 ------- 1 4.0 14.0 9 26
r 1.084 4 7 cbr 500 ------- 1 4.0 14.0 14 36
+ 1.084 7 8 cbr 500 ------- 1 4.0 14.0 14 36
r 1.084 5 7 cbr 500 ------- 1 5.0 15.0 14 37
+ 1.084 7 8 cbr 500 ------- 1 5.0 15.0 14 37
- 1.084 7 8 cbr 500 ------- 1 4.0 14.0 14 36
r 1.084 7 8 cbr 500 ------- 1 5.0 15.0 11 31
+ 1.084 8 9 cbr 500 ------- 1 5.0 15.0 11 31
- 1.084 8 9 cbr 500 ------- 1 5.0 15.0 11 31
r 1.084667 9 15 cbr 500 ------- 1 5.0 15.0 6 17
+ 1.085 4 7 cbr 500 ------- 1 4.0 14.0 17 50
- 1.085 4 7 cbr 500 ------- 1 4.0 14.0 17 50
+ 1.085 5 7 cbr 500 ------- 1 5.0 15.0 17 51
- 1.085 5 7 cbr 500 ------- 1 5.0 15.0 17 51
r 1.085667 8 9 cbr 500 ------- 1 5.0 15.0 9 27
+ 1.085667 9 15 cbr 500 ------- 1 5.0 15.0 9 27
- 1.085667 9 15 cbr 500 ------- 1 5.0 15.0 9 27
- 1.085997 0 6 tcp 540 ------- 0 0.0 10.0 2 43
- 1.086131 1 6 tcp 540 ------- 0 1.0 11.0 2 45
- 1.086264 2 6 tcp 540 ------- 0 2.0 12.0 2 47
- 1.086397 3 6 tcp 540 ------- 0 3.0 13.0 2 49
- 1.0865 7 8 cbr 500 ------- 1 5.0 15.0 14 37
r 1.0865 7 8 cbr 500 ------- 1 4.0 14.0 12 32
+ 1.0865 8 9 cbr 500 ------- 1 4.0 14.0 12 32
- 1.0865 8 9 cbr 500 ------- 1 4.0 14.0 12 32
r 1.087167 9 14 cbr 500 ------- 1 4.0 14.0 7 18
r 1.088167 8 9 cbr 500 ------- 1 4.0 14.0 10 28
+ 1.088167 9 14 cbr 500 ------- 1 4.0 14.0 10 28
- 1.088167 9 14 cbr 500 ------- 1 4.0 14.0 10 28
r 1.089 4 7 cbr 500 ------- 1 4.0 14.0 15 38
+ 1.089 7 8 cbr 500 ------- 1 4.0 14.0 15 38
r 1.089 5 7 cbr 500 ------- 1 5.0 15.0 15 39
+ 1.089 7 8 cbr 500 ------- 1 5.0 15.0 15 39
- 1.089 7 8 cbr 500 ------- 1 4.0 14.0 15 38
r 1.089 7 8 cbr 500 ------- 1 5.0 15.0 12 33
+ 1.089 8 9 cbr 500 ------- 1 5.0 15.0 12 33
- 1.089 8 9 cbr 500 ------- 1 5.0 15.0 12 33
r 1.089667 9 15 cbr 500 ------- 1 5.0 15.0 7 19
+ 1.09 4 7 cbr 500 ------- 1 4.0 14.0 18 52
- 1.09 4 7 cbr 500 ------- 1 4.0 14.0 18 52
+ 1.09 5 7 cbr 500 ------- 1 5.0 15.0 18 53
- 1.09 5 7 cbr 500 ------- 1 5.0 15.0 18 53
r 1.090667 8 9 cbr 500 ------- 1 5.0 15.0 10 29
+ 1.090667 9 15 cbr 500 ------- 1 5.0 15.0 10 29
- 1.090667 9 15 cbr 500 ------- 1 5.0 15.0 10 29
- 1.0915 7 8 cbr 500 ------- 1 5.0 15.0 15 39
r 1.0915 7 8 cbr 500 ------- 1 4.0 14.0 13 34
+ 1.0915 8 9 cbr 500 ------- 1 4.0 14.0 13 34
- 1.0915 8 9 cbr 500 ------- 1 4.0 14.0 13 34
r 1.092167 9 14 cbr 500 ------- 1 4.0 14.0 8 20
r 1.093167 8 9 cbr 500 ------- 1 4.0 14.0 11 30
+ 1.093167 9 14 cbr 500 ------- 1 4.0 14.0 11 30
- 1.093167 9 14 cbr 500 ------- 1 4.0 14.0 11 30
r 1.094 4 7 cbr 500 ------- 1 4.0 14.0 16 40
+ 1.094 7 8 cbr 500 ------- 1 4.0 14.0 16 40
r 1.094 5 7 cbr 500 ------- 1 5.0 15.0 16 41
+ 1.094 7 8 cbr 500 ------- 1 5.0 15.0 16 41
- 1.094 7 8 cbr 500 ------- 1 4.0 14.0 16 40
r 1.094 7 8 cbr 500 ------- 1 5.0 15.0 13 35
+ 1.094 8 9 cbr 500 ------- 1 5.0 15.0 13 35
- 1.094 8 9 cbr 500 ------- 1 5.0 15.0 13 35
r 1.094667 9 15 cbr 500 ------- 1 5.0 15.0 8 21
+ 1.095 4 7 cbr 500 ------- 1 4.0 14.0 19 54
- 1.095 4 7 cbr 500 ------- 1 4.0 14.0 19 54
+ 1.095 5 7 cbr 500 ------- 1 5.0 15.0 19 55
- 1.095 5 7 cbr 500 ------- 1 5.0 15.0 19 55
r 1.095667 8 9 cbr 500 ------- 1 5.0 15.0 11 31
+ 1.095667 9 15 cbr 500 ------- 1 5.0 15.0 11 31
- 1.095667 9 15 cbr 500 ------- 1 5.0 15.0 11 31
r 1.095997 0 6 tcp 540 ------- 0 0.0 10.0 1 42
+ 1.095997 6 8 tcp 540 ------- 0 0.0 10.0 1 42
- 1.095997 6 8 tcp 540 ------- 0 0.0 10.0 1 42
r 1.096131 1 6 tcp 540 ------- 0 1.0 11.0 1 44
+ 1.096131 6 8 tcp 540 ------- 0 1.0 11.0 1 44
r 1.096264 2 6 tcp 540 ------- 0 2.0 12.0 1 46
+ 1.096264 6 8 tcp 540 ------- 0 2.0 12.0 1 46
r 1.096397 3 6 tcp 540 ------- 0 3.0 13.0 1 48
+ 1.096397 6 8 tcp 540 ------- 0 3.0 13.0 1 48
- 1.0965 7 8 cbr 500 ------- 1 5.0 15.0 16 41
r 1.0965 7 8 cbr 500 ------- 1 4.0 14.0 14 36
+ 1.0965 8 9 cbr 500 ------- 1 4.0 14.0 14 36
- 1.0965 8 9 cbr 500 ------- 1 4.0 14.0 14 36
r 1.097167 9 14 cbr 500 ------- 1 4.0 14.0 9 26
- 1.097347 6 8 tcp 540 ------- 0 1.0 11.0 1 44
r 1.098167 8 9 cbr 500 ------- 1 4.0 14.0 12 32
+ 1.098167 9 14 cbr 500 ------- 1 4.0 14.0 12 32
- 1.098167 9 14 cbr 500 ------- 1 4.0 14.0 12 32
- 1.098697 6 8 tcp 540 ------- 0 2.0 12.0 1 46
r 1.099 4 7 cbr 500 ------- 1 4.0 14.0 17 50
+ 1.099 7 8 cbr 500 ------- 1 4.0 14.0 17 50
r 1.099 5 7 cbr 500 ------- 1 5.0 15.0 17 51
+ 1.099 7 8 cbr 500 ------- 1 5.0 15.0 17 51
- 1.099 7 8 cbr 500 ------- 1 4.0 14.0 17 50
r 1.099 7 8 cbr 500 ------- 1 5.0 15.0 14 37
+ 1.099 8 9 cbr 500 ------- 1 5.0 15.0 14 37
- 1.099 8 9 cbr 500 ------- 1 5.0 15.0 14 37
r 1.099667 9 15 cbr 500 ------- 1 5.0 15.0 9 27
+ 1.1 4 7 cbr 500 ------- 1 4.0 14.0 20 56
- 1.1 4 7 cbr 500 ------- 1 4.0 14.0 20 56
+ 1.1 5 7 cbr 500 ------- 1 5.0 15.0 20 57
- 1.1 5 7 cbr 500 ------- 1 5.0 15.0 20 57
- 1.100047 6 8 tcp 540 ------- 0 3.0 13.0 1 48
r 1.100317 0 6 tcp 540 ------- 0 0.0 10.0 2 43
+ 1.100317 6 8 tcp 540 ------- 0 0.0 10.0 2 43
r 1.100451 1 6 tcp 540 ------- 0 1.0 11.0 2 45
+ 1.100451 6 8 tcp 540 ------- 0 1.0 11.0 2 45
r 1.100584 2 6 tcp 540 ------- 0 2.0 12.0 2 47
+ 1.100584 6 8 tcp 540 ------- 0 2.0 12.0 2 47
r 1.100667 8 9 cbr 500 ------- 1 5.0 15.0 12 33
+ 1.100667 9 15 cbr 500 ------- 1 5.0 15.0 12 33
- 1.100667 9 15 cbr 500 ------- 1 5.0 15.0 12 33
r 1.100717 3 6 tcp 540 ------- 0 3.0 13.0 2 49
+ 1.100717 6 8 tcp 540 ------- 0 3.0 13.0 2 49
- 1.101397 6 8 tcp 540 ------- 0 0.0 10.0 2 43
- 1.1015 7 8 cbr 500 ------- 1 5.0 15.0 17 51
r 1.1015 7 8 cbr 500 ------- 1 4.0 14.0 15 38
+ 1.1015 8 9 cbr 500 ------- 1 4.0 14.0 15 38
- 1.1015 8 9 cbr 500 ------- 1 4.0 14.0 15 38
r 1.102167 9 14 cbr 500 ------- 1 4.0 14.0 10 28
- 1.102747 6 8 tcp 540 ------- 0 1.0 11.0 2 45
r 1.103167 8 9 cbr 500 ------- 1 4.0 14.0 13 34
+ 1.103167 9 14 cbr 500 ------- 1 4.0 14.0 13 34
- 1.103167 9 14 cbr 500 ------- 1 4.0 14.0 13 34
r 1.104 4 7 cbr 500 ------- 1 4.0 14.0 18 52
+ 1.104 7 8 cbr 500 ------- 1 4.0 14.0 18 52
r 1.104 5 7 cbr 500 ------- 1 5.0 15.0 18 53
+ 1.104 7 8 cbr 500 ------- 1 5.0 15.0 18 53
- 1.104 7 8 cbr 500 ------- 1 4.0 14.0 18 52
r 1.104 7 8 cbr 500 ------- 1 5.0 15.0 15 39
+ 1.104 8 9 cbr 500 ------- 1 5.0 15.0 15 39
- 1.104 8 9 cbr 500 ------- 1 5.0 15.0 15 39
- 1.104097 6 8 tcp 540 ------- 0 2.0 12.0 2 47
r 1.104667 9 15 cbr 500 ------- 1 5.0 15.0 10 29
+ 1.105 4 7 cbr 500 ------- 1 4.0 14.0 21 58
- 1.105 4 7 cbr 500 ------- 1 4.0 14.0 21 58
+ 1.105 5 7 cbr 500 ------- 1 5.0 15.0 21 59
- 1.105 5 7 cbr 500 ------- 1 5.0 15.0 21 59
- 1.105447 6 8 tcp 540 ------- 0 3.0 13.0 2 49
r 1.105667 8 9 cbr 500 ------- 1 5.0 15.0 13 35
+ 1.105667 9 15 cbr 500 ------- 1 5.0 15.0 13 35
- 1.105667 9 15 cbr 500 ------- 1 5.0 15.0 13 35
- 1.1065 7 8 cbr 500 ------- 1 5.0 15.0 18 53
r 1.1065 7 8 cbr 500 ------- 1 4.0 14.0 16 40
+ 1.1065 8 9 cbr 500 ------- 1 4.0 14.0 16 40
- 1.1065 8 9 cbr 500 ------- 1 4.0 14.0 16 40
r 1.107167 9 14 cbr 500 ------- 1 4.0 14.0 11 30
r 1.107347 6 8 tcp 540 ------- 0 0.0 10.0 1 42
+ 1.107347 8 9 tcp 540 ------- 0 0.0 10.0 1 42
- 1.108167 8 9 tcp 540 ------- 0 0.0 10.0 1 42
r 1.108167 8 9 cbr 500 ------- 1 4.0 14.0 14 36
+ 1.108167 9 14 cbr 500 ------- 1 4.0 14.0 14 36
- 1.108167 9 14 cbr 500 ------- 1 4.0 14.0 14 36
r 1.108697 6 8 tcp 540 ------- 0 1.0 11.0 1 44
+ 1.108697 8 9 tcp 540 ------- 0 1.0 11.0 1 44
r 1.109 4 7 cbr 500 ------- 1 4.0 14.0 19 54
+ 1.109 7 8 cbr 500 ------- 1 4.0 14.0 19 54
r 1.109 5 7 cbr 500 ------- 1 5.0 15.0 19 55
+ 1.109 7 8 cbr 500 ------- 1 5.0 15.0 19 55
- 1.109 7 8 cbr 500 ------- 1 4.0 14.0 19 54
r 1.109 7 8 cbr 500 ------- 1 5.0 15.0 16 41
+ 1.109 8 9 cbr 500 ------- 1 5.0 15.0 16 41
r 1.109667 9 15 cbr 500 ------- 1 5.0 15.0 11 31
- 1.109967 8 9 tcp 540 ------- 0 1.0 11.0 1 44
+ 1.11 4 7 cbr 500 ------- 1 4.0 14.0 22 60
- 1.11 4 7 cbr 500 ------- 1 4.0 14.0 22 60
+ 1.11 5 7 cbr 500 ------- 1 5.0 15.0 22 61
- 1.11 5 7 cbr 500 ------- 1 5.0 15.0 22 61
r 1.110047 6 8 tcp 540 ------- 0 2.0 12.0 1 46
+ 1.110047 8 9 tcp 540 ------- 0 2.0 12.0 1 46
r 1.110667 8 9 cbr 500 ------- 1 5.0 15.0 14 37
+ 1.110667 9 15 cbr 500 ------- 1 5.0 15.0 14 37
- 1.110667 9 15 cbr 500 ------- 1 5.0 15.0 14 37
r 1.111397 6 8 tcp 540 ------- 0 3.0 13.0 1 48
+ 1.111397 8 9 tcp 540 ------- 0 3.0 13.0 1 48
- 1.1115 7 8 cbr 500 ------- 1 5.0 15.0 19 55
r 1.1115 7 8 cbr 500 ------- 1 4.0 14.0 17 50
+ 1.1115 8 9 cbr 500 ------- 1 4.0 14.0 17 50
- 1.111767 8 9 tcp 540 ------- 0 2.0 12.0 1 46
r 1.112167 9 14 cbr 500 ------- 1 4.0 14.0 12 32
r 1.112747 6 8 tcp 540 ------- 0 0.0 10.0 2 43
+ 1.112747 8 9 tcp 540 ------- 0 0.0 10.0 2 43
r 1.113167 8 9 cbr 500 ------- 1 4.0 14.0 15 38
+ 1.113167 9 14 cbr 500 ------- 1 4.0 14.0 15 38
- 1.113167 9 14 cbr 500 ------- 1 4.0 14.0 15 38
- 1.113567 8 9 tcp 540 ------- 0 3.0 13.0 1 48
r 1.114 4 7 cbr 500 ------- 1 4.0 14.0 20 56
+ 1.114 7 8 cbr 500 ------- 1 4.0 14.0 20 56
r 1.114 5 7 cbr 500 ------- 1 5.0 15.0 20 57
+ 1.114 7 8 cbr 500 ------- 1 5.0 15.0 20 57
- 1.114 7 8 cbr 500 ------- 1 4.0 14.0 20 56
r 1.114 7 8 cbr 500 ------- 1 5.0 15.0 17 51
+ 1.114 8 9 cbr 500 ------- 1 5.0 15.0 17 51
r 1.114097 6 8 tcp 540 ------- 0 1.0 11.0 2 45
+ 1.114097 8 9 tcp 540 ------- 0 1.0 11.0 2 45
r 1.114667 9 15 cbr 500 ------- 1 5.0 15.0 12 33
+ 1.115 4 7 cbr 500 ------- 1 4.0 14.0 23 62
- 1.115 4 7 cbr 500 ------- 1 4.0 14.0 23 62
+ 1.115 5 7 cbr 500 ------- 1 5.0 15.0 23 63
- 1.115 5 7 cbr 500 ------- 1 5.0 15.0 23 63
- 1.115367 8 9 tcp 540 ------- 0 0.0 10.0 2 43
r 1.115447 6 8 tcp 540 ------- 0 2.0 12.0 2 47
+ 1.115447 8 9 tcp 540 ------- 0 2.0 12.0 2 47
r 1.115667 8 9 cbr 500 ------- 1 5.0 15.0 15 39
+ 1.115667 9 15 cbr 500 ------- 1 5.0 15.0 15 39
- 1.115667 9 15 cbr 500 ------- 1 5.0 15.0 15 39
- 1.1165 7 8 cbr 500 ------- 1 5.0 15.0 20 57
r 1.1165 7 8 cbr 500 ------- 1 4.0 14.0 18 52
+ 1.1165 8 9 cbr 500 ------- 1 4.0 14.0 18 52
r 1.116797 6 8 tcp 540 ------- 0 3.0 13.0 2 49
+ 1.116797 8 9 tcp 540 ------- 0 3.0 13.0 2 49
- 1.117167 8 9 tcp 540 ------- 0 1.0 11.0 2 45
r 1.117167 9 14 cbr 500 ------- 1 4.0 14.0 13 34
r 1.118167 8 9 cbr 500 ------- 1 4.0 14.0 16 40
+ 1.118167 9 14 cbr 500 ------- 1 4.0 14.0 16 40
- 1.118167 9 14 cbr 500 ------- 1 4.0 14.0 16 40
- 1.118967 8 9 tcp 540 ------- 0 2.0 12.0 2 47
r 1.119 4 7 cbr 500 ------- 1 4.0 14.0 21 58
+ 1.119 7 8 cbr 500 ------- 1 4.0 14.0 21 58
r 1.119 5 7 cbr 500 ------- 1 5.0 15.0 21 59
+ 1.119 7 8 cbr 500 ------- 1 5.0 15.0 21 59
- 1.119 7 8 cbr 500 ------- 1 4.0 14.0 21 58
r 1.119 7 8 cbr 500 ------- 1 5.0 15.0 18 53
+ 1.119 8 9 cbr 500 ------- 1 5.0 15.0 18 53
r 1.119667 9 15 cbr 500 ------- 1 5.0 15.0 13 35
r 1.119967 8 9 tcp 540 ------- 0 0.0 10.0 1 42
+ 1.119967 9 10 tcp 540 ------- 0 0.0 10.0 1 42
- 1.119967 9 10 tcp 540 ------- 0 0.0 10.0 1 42
+ 1.12 4 7 cbr 500 ------- 1 4.0 14.0 24 64
- 1.12 4 7 cbr 500 ------- 1 4.0 14.0 24 64
+ 1.12 5 7 cbr 500 ------- 1 5.0 15.0 24 65
- 1.12 5 7 cbr 500 ------- 1 5.0 15.0 24 65
- 1.120767 8 9 tcp 540 ------- 0 3.0 13.0 2 49
- 1.1215 7 8 cbr 500 ------- 1 5.0 15.0 21 59
r 1.1215 7 8 cbr 500 ------- 1 4.0 14.0 19 54
+ 1.1215 8 9 cbr 500 ------- 1 4.0 14.0 19 54
r 1.121767 8 9 tcp 540 ------- 0 1.0 11.0 1 44
+ 1.121767 9 11 tcp 540 ------- 0 1.0 11.0 1 44
- 1.121767 9 11 tcp 540 ------- 0 1.0 11.0 1 44
r 1.122167 9 14 cbr 500 ------- 1 4.0 14.0 14 36
- 1.122567 8 9 cbr 500 ------- 1 5.0 15.0 16 41
r 1.123567 8 9 tcp 540 ------- 0 2.0 12.0 1 46
+ 1.123567 9 12 tcp 540 ------- 0 2.0 12.0 1 46
- 1.123567 9 12 tcp 540 ------- 0 2.0 12.0 1 46
r 1.124 4 7 cbr 500 ------- 1 4.0 14.0 22 60
+ 1.124 7 8 cbr 500 ------- 1 4.0 14.0 22 60
r 1.124 5 7 cbr 500 ------- 1 5.0 15.0 22 61
+ 1.124 7 8 cbr 500 ------- 1 5.0 15.0 22 61
- 1.124 7 8 cbr 500 ------- 1 4.0 14.0 22 60
r 1.124 7 8 cbr 500 ------- 1 5.0 15.0 19 55
+ 1.124 8 9 cbr 500 ------- 1 5.0 15.0 19 55
- 1.124233 8 9 cbr 500 ------- 1 4.0 14.0 17 50
r 1.124667 9 15 cbr 500 ------- 1 5.0 15.0 14 37
+ 1.125 4 7 cbr 500 ------- 1 4.0 14.0 25 66
- 1.125 4 7 cbr 500 ------- 1 4.0 14.0 25 66
+ 1.125 5 7 cbr 500 ------- 1 5.0 15.0 25 67
- 1.125 5 7 cbr 500 ------- 1 5.0 15.0 25 67
r 1.125367 8 9 tcp 540 ------- 0 3.0 13.0 1 48
+ 1.125367 9 13 tcp 540 ------- 0 3.0 13.0 1 48
- 1.125367 9 13 tcp 540 ------- 0 3.0 13.0 1 48
- 1.1259 8 9 cbr 500 ------- 1 5.0 15.0 17 51
- 1.1265 7 8 cbr 500 ------- 1 5.0 15.0 22 61